-0.5 	-1 	0.5 	39.191 	0.531511 	8.64716e-19
-0.484375 	-1 	0.5 	39.1833 	0.530246 	3.20808e-19
-0.46875 	-1 	0.5 	39.1754 	0.524832 	1.76398e-18
-0.453125 	-1 	0.5 	39.1675 	0.519236 	7.31644e-19
-0.4375 	-1 	0.5 	39.1597 	0.513975 	-4.49554e-20
-0.421875 	-1 	0.5 	39.1511 	0.509277 	-1.38864e-19
-0.40625 	-1 	0.5 	39.142 	0.504501 	-3.38736e-19
-0.390625 	-1 	0.5 	39.1328 	0.499724 	-5.38608e-19
-0.375 	-1 	0.5 	39.1256 	0.49567 	-1.69648e-19
-0.359375 	-1 	0.5 	39.1174 	0.49023 	-2.00088e-20
-0.34375 	-1 	0.5 	39.1098 	0.486324 	1.45881e-18
-0.328125 	-1 	0.5 	39.1022 	0.482347 	2.85671e-18
-0.3125 	-1 	0.5 	39.0945 	0.475671 	1.13708e-18
-0.296875 	-1 	0.5 	39.0863 	0.468726 	1.51754e-19
-0.28125 	-1 	0.5 	39.0778 	0.461783 	7.87017e-19
-0.265625 	-1 	0.5 	39.0703 	0.454987 	3.82418e-19
-0.25 	-1 	0.5 	39.0628 	0.448192 	-2.21818e-20
-0.234375 	-1 	0.5 	39.0552 	0.441721 	-1.0524e-18
-0.21875 	-1 	0.5 	39.0475 	0.435619 	-2.46905e-18
-0.203125 	-1 	0.5 	39.0399 	0.429518 	-3.8857e-18
-0.1875 	-1 	0.5 	39.0327 	0.423799 	-2.52936e-18
-0.171875 	-1 	0.5 	39.0255 	0.417567 	1.52756e-18
-0.15625 	-1 	0.5 	39.0174 	0.4091 	2.38145e-19
-0.140625 	-1 	0.5 	39.0112 	0.403883 	-2.62085e-18
-0.125 	-1 	0.5 	39.004 	0.39372 	-8.35416e-19
-0.109375 	-1 	0.5 	38.9974 	0.385344 	-6.79304e-19
-0.09375 	-1 	0.5 	38.9878 	0.376925 	-1.12979e-18
-0.078125 	-1 	0.5 	38.9837 	0.369503 	-2.5566e-19
-0.0625 	-1 	0.5 	38.9754 	0.361818 	2.93955e-19
-0.046875 	-1 	0.5 	38.9698 	0.351534 	-2.07255e-18
-0.03125 	-1 	0.5 	38.9637 	0.34246 	-2.82204e-18
-0.015625 	-1 	0.5 	38.9567 	0.33676 	-4.69299e-19
0 	-1 	0.5 	38.9501 	0.329315 	3.12535e-19
0.015625 	-1 	0.5 	38.9448 	0.320088 	1.14027e-18
0.03125 	-1 	0.5 	38.9394 	0.311053 	2.03901e-18
0.046875 	-1 	0.5 	38.9331 	0.302516 	-6.60845e-20
0.0625 	-1 	0.5 	38.9268 	0.293379 	-6.0179e-19
0.078125 	-1 	0.5 	38.922 	0.285152 	-1.04494e-18
0.09375 	-1 	0.5 	38.9157 	0.274286 	6.03232e-19
0.109375 	-1 	0.5 	38.9099 	0.264249 	2.34954e-19
0.125 	-1 	0.5 	38.9042 	0.254513 	7.57673e-20
0.140625 	-1 	0.5 	38.8992 	0.244661 	1.53773e-19
0.15625 	-1 	0.5 	38.8945 	0.234815 	4.92193e-19
0.171875 	-1 	0.5 	38.8899 	0.224749 	7.51858e-19
0.1875 	-1 	0.5 	38.8851 	0.214591 	-3.66559e-19
0.203125 	-1 	0.5 	38.8802 	0.204391 	-1.1011e-18
0.21875 	-1 	0.5 	38.8753 	0.1934 	2.99759e-19
0.234375 	-1 	0.5 	38.8709 	0.182661 	-2.12844e-18
0.25 	-1 	0.5 	38.8662 	0.172429 	-1.22987e-18
0.265625 	-1 	0.5 	38.8623 	0.160362 	3.31144e-18
0.28125 	-1 	0.5 	38.858 	0.149027 	1.20477e-18
0.296875 	-1 	0.5 	38.854 	0.137671 	-3.43206e-19
0.3125 	-1 	0.5 	38.8507 	0.125716 	-1.15427e-19
0.328125 	-1 	0.5 	38.847 	0.114757 	4.87585e-19
0.34375 	-1 	0.5 	38.8433 	0.103247 	1.0577e-18
0.359375 	-1 	0.5 	38.84 	0.0910662 	-3.74093e-19
0.375 	-1 	0.5 	38.8367 	0.0808264 	2.52214e-18
0.390625 	-1 	0.5 	38.8342 	0.0681305 	1.40499e-18
0.40625 	-1 	0.5 	38.832 	0.0567902 	-8.20612e-19
0.421875 	-1 	0.5 	38.8322 	0.0434262 	-3.28882e-20
0.4375 	-1 	0.5 	38.8307 	0.0306075 	-5.44469e-19
0.453125 	-1 	0.5 	38.8276 	0.0173201 	3.18735e-19
0.46875 	-1 	0.5 	38.8257 	0.00373316 	5.66404e-20
0.484375 	-1 	0.5 	38.8246 	-0.0103473 	1.38497e-18
0.5 	-1 	0.5 	38.8228 	-0.0218729 	7.15708e-19
0.515625 	-1 	0.5 	38.8216 	-0.0349015 	6.77532e-19
0.53125 	-1 	0.5 	38.8226 	-0.0475607 	-7.17508e-20
0.546875 	-1 	0.5 	38.8223 	-0.0618459 	-3.57386e-20
0.5625 	-1 	0.5 	38.8228 	-0.0755885 	-1.63237e-19
0.578125 	-1 	0.5 	38.8229 	-0.0886081 	-1.7967e-20
0.59375 	-1 	0.5 	38.8228 	-0.101807 	1.41614e-19
0.609375 	-1 	0.5 	38.8247 	-0.115628 	1.69196e-19
0.625 	-1 	0.5 	38.8273 	-0.128577 	-4.0348e-20
0.640625 	-1 	0.5 	38.8291 	-0.142053 	-2.85463e-19
0.65625 	-1 	0.5 	38.8313 	-0.154936 	-2.17106e-19
0.671875 	-1 	0.5 	38.8336 	-0.168197 	-9.67963e-19
0.6875 	-1 	0.5 	38.8361 	-0.181381 	-1.23665e-18
0.703125 	-1 	0.5 	38.8388 	-0.194648 	-7.96653e-19
0.71875 	-1 	0.5 	38.8413 	-0.206702 	-4.39683e-20
0.734375 	-1 	0.5 	38.845 	-0.219752 	-1.67032e-19
0.75 	-1 	0.5 	38.8489 	-0.23301 	-3.14758e-19
0.765625 	-1 	0.5 	38.854 	-0.24544 	-3.82641e-19
0.78125 	-1 	0.5 	38.858 	-0.258198 	-1.76909e-19
0.796875 	-1 	0.5 	38.8636 	-0.272395 	-6.95701e-19
0.8125 	-1 	0.5 	38.8676 	-0.283686 	8.89523e-20
0.828125 	-1 	0.5 	38.8729 	-0.29613 	1.47818e-21
0.84375 	-1 	0.5 	38.8788 	-0.310767 	1.4257e-20
0.859375 	-1 	0.5 	38.8867 	-0.321518 	-8.75865e-19
0.875 	-1 	0.5 	38.893 	-0.333811 	-7.06137e-19
0.890625 	-1 	0.5 	38.9023 	-0.347286 	-2.15833e-18
0.90625 	-1 	0.5 	38.9061 	-0.358047 	7.4576e-19
0.921875 	-1 	0.5 	38.9134 	-0.369855 	4.21773e-19
0.9375 	-1 	0.5 	38.918 	-0.386513 	1.19829e-20
0.953125 	-1 	0.5 	38.9254 	-0.389642 	5.11229e-20
0.96875 	-1 	0.5 	38.9334 	-0.400692 	1.65072e-20
0.984375 	-1 	0.5 	38.9422 	-0.411398 	-9.84303e-19
1 	-1 	0.5 	38.9519 	-0.423034 	-5.02458e-19
1.01562 	-1 	0.5 	38.9611 	-0.433882 	-6.51805e-19
1.03125 	-1 	0.5 	38.97 	-0.444342 	-8.52051e-19
1.04688 	-1 	0.5 	38.9783 	-0.453593 	1.70676e-18
1.0625 	-1 	0.5 	38.9863 	-0.463123 	1.71059e-18
1.07812 	-1 	0.5 	38.9947 	-0.472925 	3.96486e-19
1.09375 	-1 	0.5 	39.0059 	-0.481162 	2.03701e-19
1.10938 	-1 	0.5 	39.0166 	-0.490834 	-3.89814e-20
1.125 	-1 	0.5 	39.0261 	-0.499503 	-1.68786e-18
1.14062 	-1 	0.5 	39.0359 	-0.507117 	-1.48716e-18
1.15625 	-1 	0.5 	39.0455 	-0.514989 	-4.11937e-19
1.17188 	-1 	0.5 	39.0558 	-0.523199 	6.7609e-19
1.1875 	-1 	0.5 	39.0664 	-0.531622 	1.78432e-18
1.20312 	-1 	0.5 	39.076 	-0.539364 	1.15266e-18
1.21875 	-1 	0.5 	39.0855 	-0.545777 	3.2403e-18
1.23438 	-1 	0.5 	39.0969 	-0.55131 	2.48607e-18
1.25 	-1 	0.5 	39.1084 	-0.556845 	-3.62907e-19
1.26562 	-1 	0.5 	39.1197 	-0.563272 	-1.52764e-19
1.28125 	-1 	0.5 	39.13 	-0.569622 	-4.35516e-19
1.29688 	-1 	0.5 	39.1403 	-0.576446 	-4.3106e-19
1.3125 	-1 	0.5 	39.1514 	-0.580611 	-1.42785e-18
1.32812 	-1 	0.5 	39.1626 	-0.584364 	-3.59633e-19
1.34375 	-1 	0.5 	39.1733 	-0.589904 	-1.1655e-18
1.35938 	-1 	0.5 	39.1834 	-0.593186 	2.11505e-19
1.375 	-1 	0.5 	39.1926 	-0.598146 	4.8132e-19
1.39062 	-1 	0.5 	39.2028 	-0.602988 	3.63548e-19
1.40625 	-1 	0.5 	39.2129 	-0.60783 	2.45775e-19
1.42188 	-1 	0.5 	39.2239 	-0.611059 	1.68366e-19
1.4375 	-1 	0.5 	39.2362 	-0.612685 	7.60412e-20
1.45312 	-1 	0.5 	39.2484 	-0.614311 	-1.62835e-20
1.46875 	-1 	0.5 	39.2578 	-0.620059 	-3.33534e-19
1.48438 	-1 	0.5 	39.2684 	-0.62478 	2.657e-20
-0.5 	-0.984375 	0.5 	39.1854 	0.541101 	4.74596e-19
-0.484375 	-0.984375 	0.5 	39.1773 	0.538475 	1.08939e-19
-0.46875 	-0.984375 	0.5 	39.1694 	0.533386 	5.97134e-19
-0.453125 	-0.984375 	0.5 	39.1615 	0.528416 	-4.3267e-19
-0.4375 	-0.984375 	0.5 	39.153 	0.522873 	-4.51294e-19
-0.421875 	-0.984375 	0.5 	39.1423 	0.516722 	-6.12058e-19
-0.40625 	-0.984375 	0.5 	39.1336 	0.512129 	-6.59417e-19
-0.390625 	-0.984375 	0.5 	39.1271 	0.507851 	2.19921e-22
-0.375 	-0.984375 	0.5 	39.1183 	0.504043 	-2.95914e-19
-0.359375 	-0.984375 	0.5 	39.1123 	0.49783 	-2.70575e-18
-0.34375 	-0.984375 	0.5 	39.1019 	0.492312 	-4.97254e-19
-0.328125 	-0.984375 	0.5 	39.0939 	0.488288 	1.13947e-18
-0.3125 	-0.984375 	0.5 	39.0862 	0.482757 	7.4288e-19
-0.296875 	-0.984375 	0.5 	39.0779 	0.475802 	2.79073e-19
-0.28125 	-0.984375 	0.5 	39.07 	0.468951 	2.69384e-19
-0.265625 	-0.984375 	0.5 	39.0625 	0.462119 	-3.56475e-19
-0.25 	-0.984375 	0.5 	39.0532 	0.454901 	-7.2267e-19
-0.234375 	-0.984375 	0.5 	39.0471 	0.450093 	9.28945e-19
-0.21875 	-0.984375 	0.5 	39.0389 	0.444558 	4.3276e-19
-0.203125 	-0.984375 	0.5 	39.031 	0.438535 	-1.28771e-18
-0.1875 	-0.984375 	0.5 	39.0237 	0.432759 	-3.44027e-19
-0.171875 	-0.984375 	0.5 	39.0157 	0.424921 	3.23725e-18
-0.15625 	-0.984375 	0.5 	39.0076 	0.416454 	1.91696e-18
-0.140625 	-0.984375 	0.5 	39.0005 	0.408854 	-4.76512e-19
-0.125 	-0.984375 	0.5 	38.9936 	0.40169 	-3.38733e-20
-0.109375 	-0.984375 	0.5 	38.9875 	0.39328 	-7.04223e-20
-0.09375 	-0.984375 	0.5 	38.9801 	0.38401 	-3.64232e-19
-0.078125 	-0.984375 	0.5 	38.9732 	0.376626 	6.86959e-19
-0.0625 	-0.984375 	0.5 	38.9651 	0.368694 	7.87793e-19
-0.046875 	-0.984375 	0.5 	38.9591 	0.359407 	-9.53088e-19
-0.03125 	-0.984375 	0.5 	38.9525 	0.352087 	-5.64368e-20
-0.015625 	-0.984375 	0.5 	38.9454 	0.343741 	1.12514e-18
0 	-0.984375 	0.5 	38.9396 	0.335635 	1.86755e-19
0.015625 	-0.984375 	0.5 	38.9338 	0.326817 	2.97734e-19
0.03125 	-0.984375 	0.5 	38.9288 	0.317269 	1.11784e-18
0.046875 	-0.984375 	0.5 	38.9233 	0.308153 	-6.32144e-19
0.0625 	-0.984375 	0.5 	38.9174 	0.298791 	-1.34202e-18
0.078125 	-0.984375 	0.5 	38.9102 	0.290443 	-2.68238e-19
0.09375 	-0.984375 	0.5 	38.9042 	0.279932 	4.81995e-19
0.109375 	-0.984375 	0.5 	38.8984 	0.26953 	4.12949e-19
0.125 	-0.984375 	0.5 	38.893 	0.25953 	2.64298e-19
0.140625 	-0.984375 	0.5 	38.8879 	0.250115 	-1.80014e-19
0.15625 	-0.984375 	0.5 	38.8828 	0.240239 	1.05287e-19
0.171875 	-0.984375 	0.5 	38.8776 	0.229659 	8.27007e-19
0.1875 	-0.984375 	0.5 	38.8726 	0.219567 	-5.16883e-19
0.203125 	-0.984375 	0.5 	38.8677 	0.208933 	-1.58926e-19
0.21875 	-0.984375 	0.5 	38.863 	0.197698 	2.59096e-18
0.234375 	-0.984375 	0.5 	38.858 	0.187282 	1.17476e-18
0.25 	-0.984375 	0.5 	38.8533 	0.176874 	2.97009e-19
0.265625 	-0.984375 	0.5 	38.8493 	0.164921 	1.16087e-18
0.28125 	-0.984375 	0.5 	38.8451 	0.15338 	-3.26321e-19
0.296875 	-0.984375 	0.5 	38.841 	0.141441 	-2.20973e-19
0.3125 	-0.984375 	0.5 	38.8371 	0.1296 	1.23574e-18
0.328125 	-0.984375 	0.5 	38.8335 	0.117827 	3.85015e-18
0.34375 	-0.984375 	0.5 	38.8295 	0.106897 	-1.06814e-19
0.359375 	-0.984375 	0.5 	38.8278 	0.0929599 	-4.34408e-18
0.375 	-0.984375 	0.5 	38.8234 	0.08177 	-4.77607e-19
0.390625 	-0.984375 	0.5 	38.8203 	0.0704605 	9.06729e-19
0.40625 	-0.984375 	0.5 	38.8187 	0.0588189 	-5.70876e-19
0.421875 	-0.984375 	0.5 	38.8169 	0.0452763 	7.18832e-19
0.4375 	-0.984375 	0.5 	38.8157 	0.0326976 	2.33786e-19
0.453125 	-0.984375 	0.5 	38.8129 	0.0192197 	4.64612e-19
0.46875 	-0.984375 	0.5 	38.8102 	0.00621786 	-2.01872e-18
0.484375 	-0.984375 	0.5 	38.8098 	-0.00841586 	3.04795e-19
0.5 	-0.984375 	0.5 	38.8098 	-0.020687 	7.28435e-19
0.515625 	-0.984375 	0.5 	38.8065 	-0.0349162 	6.56154e-19
0.53125 	-0.984375 	0.5 	38.8084 	-0.0458851 	-9.19831e-19
0.546875 	-0.984375 	0.5 	38.807 	-0.0620066 	-1.76623e-19
0.5625 	-0.984375 	0.5 	38.8068 	-0.0755868 	-2.36207e-19
0.578125 	-0.984375 	0.5 	38.806 	-0.0883624 	-2.805e-20
0.59375 	-0.984375 	0.5 	38.8075 	-0.102341 	2.96638e-20
0.609375 	-0.984375 	0.5 	38.8093 	-0.11603 	8.82564e-20
0.625 	-0.984375 	0.5 	38.8119 	-0.129536 	5.17035e-20
0.640625 	-0.984375 	0.5 	38.8141 	-0.142777 	-1.77571e-19
0.65625 	-0.984375 	0.5 	38.8157 	-0.156745 	-3.16176e-19
0.671875 	-0.984375 	0.5 	38.8175 	-0.170364 	-7.35407e-19
0.6875 	-0.984375 	0.5 	38.8207 	-0.183506 	-1.07569e-18
0.703125 	-0.984375 	0.5 	38.8234 	-0.196943 	-6.2041e-19
0.71875 	-0.984375 	0.5 	38.8263 	-0.21075 	-2.35685e-19
0.734375 	-0.984375 	0.5 	38.8305 	-0.223979 	-3.13271e-19
0.75 	-0.984375 	0.5 	38.8344 	-0.237236 	-4.64764e-19
0.765625 	-0.984375 	0.5 	38.8385 	-0.250251 	-6.8504e-19
0.78125 	-0.984375 	0.5 	38.8442 	-0.264272 	-1.11972e-18
0.796875 	-0.984375 	0.5 	38.8498 	-0.277738 	-1.22402e-18
0.8125 	-0.984375 	0.5 	38.8534 	-0.28909 	-1.52609e-19
0.828125 	-0.984375 	0.5 	38.8585 	-0.30145 	-8.79074e-20
0.84375 	-0.984375 	0.5 	38.8651 	-0.31838 	-5.33207e-21
0.859375 	-0.984375 	0.5 	38.8728 	-0.328487 	-6.3999e-19
0.875 	-0.984375 	0.5 	38.8803 	-0.340291 	-1.22861e-18
0.890625 	-0.984375 	0.5 	38.8877 	-0.352819 	-1.38022e-18
0.90625 	-0.984375 	0.5 	38.8939 	-0.36491 	-7.5343e-19
0.921875 	-0.984375 	0.5 	38.8994 	-0.375958 	4.97424e-20
0.9375 	-0.984375 	0.5 	38.9061 	-0.387805 	2.72931e-20
0.953125 	-0.984375 	0.5 	38.9137 	-0.398204 	-1.05752e-20
0.96875 	-0.984375 	0.5 	38.9233 	-0.409168 	8.26346e-19
0.984375 	-0.984375 	0.5 	38.9318 	-0.420504 	-8.45754e-19
1 	-0.984375 	0.5 	38.9402 	-0.431352 	-8.59951e-19
1.01562 	-0.984375 	0.5 	38.9495 	-0.442284 	-9.41965e-19
1.03125 	-0.984375 	0.5 	38.9597 	-0.453414 	-1.54145e-19
1.04688 	-0.984375 	0.5 	38.9676 	-0.462931 	-1.59286e-19
1.0625 	-0.984375 	0.5 	38.9756 	-0.472422 	-7.62168e-19
1.07812 	-0.984375 	0.5 	38.9843 	-0.481644 	1.08228e-18
1.09375 	-0.984375 	0.5 	38.9951 	-0.491543 	4.21449e-19
1.10938 	-0.984375 	0.5 	39.0065 	-0.500048 	3.75934e-20
1.125 	-0.984375 	0.5 	39.0164 	-0.509012 	-6.44084e-19
1.14062 	-0.984375 	0.5 	39.0261 	-0.517133 	5.92988e-19
1.15625 	-0.984375 	0.5 	39.0362 	-0.525593 	9.89884e-19
1.17188 	-0.984375 	0.5 	39.0464 	-0.53431 	-1.42091e-18
1.1875 	-0.984375 	0.5 	39.0573 	-0.540617 	-7.96934e-20
1.20312 	-0.984375 	0.5 	39.0681 	-0.54912 	1.23291e-18
1.21875 	-0.984375 	0.5 	39.0774 	-0.555712 	2.30505e-18
1.23438 	-0.984375 	0.5 	39.0888 	-0.561176 	-5.50466e-19
1.25 	-0.984375 	0.5 	39.0997 	-0.567643 	-9.94018e-19
1.26562 	-0.984375 	0.5 	39.11 	-0.574028 	9.17696e-19
1.28125 	-0.984375 	0.5 	39.121 	-0.580291 	7.71228e-19
1.29688 	-0.984375 	0.5 	39.1335 	-0.586903 	-2.8242e-19
1.3125 	-0.984375 	0.5 	39.1448 	-0.592451 	-6.72766e-19
1.32812 	-0.984375 	0.5 	39.1554 	-0.598415 	-1.75591e-18
1.34375 	-0.984375 	0.5 	39.1666 	-0.602719 	-1.75449e-18
1.35938 	-0.984375 	0.5 	39.1773 	-0.605132 	-3.07261e-20
1.375 	-0.984375 	0.5 	39.1852 	-0.610279 	8.48723e-19
1.39062 	-0.984375 	0.5 	39.1967 	-0.614937 	1.29346e-19
1.40625 	-0.984375 	0.5 	39.2083 	-0.617061 	1.36405e-19
1.42188 	-0.984375 	0.5 	39.2206 	-0.621199 	6.89855e-19
1.4375 	-0.984375 	0.5 	39.2315 	-0.623916 	-1.60081e-19
1.45312 	-0.984375 	0.5 	39.2442 	-0.624781 	-2.02842e-19
1.46875 	-0.984375 	0.5 	39.2537 	-0.630465 	-4.78471e-19
1.48438 	-0.984375 	0.5 	39.264 	-0.636782 	-9.30046e-20
-0.5 	-0.96875 	0.5 	39.18 	0.551953 	-1.37591e-18
-0.484375 	-0.96875 	0.5 	39.1714 	0.547182 	-1.77985e-19
-0.46875 	-0.96875 	0.5 	39.1632 	0.54335 	-8.78952e-19
-0.453125 	-0.96875 	0.5 	39.1551 	0.539447 	-1.90765e-18
-0.4375 	-0.96875 	0.5 	39.1465 	0.532766 	-1.22604e-18
-0.421875 	-0.96875 	0.5 	39.1364 	0.525139 	-2.78668e-19
-0.40625 	-0.96875 	0.5 	39.1292 	0.520898 	1.02515e-19
-0.390625 	-0.96875 	0.5 	39.1184 	0.514387 	1.73445e-20
-0.375 	-0.96875 	0.5 	39.1109 	0.512416 	-4.22181e-19
-0.359375 	-0.96875 	0.5 	39.1048 	0.507213 	-2.4689e-18
-0.34375 	-0.96875 	0.5 	39.0974 	0.499819 	-3.66978e-18
-0.328125 	-0.96875 	0.5 	39.0866 	0.494494 	-1.11025e-18
-0.3125 	-0.96875 	0.5 	39.078 	0.489844 	3.48681e-19
-0.296875 	-0.96875 	0.5 	39.0699 	0.482947 	-7.28041e-20
-0.28125 	-0.96875 	0.5 	39.0609 	0.475626 	-1.05028e-18
-0.265625 	-0.96875 	0.5 	39.0514 	0.468241 	-1.77956e-18
-0.25 	-0.96875 	0.5 	39.0437 	0.46219 	-2.63008e-19
-0.234375 	-0.96875 	0.5 	39.0388 	0.458003 	1.88806e-18
-0.21875 	-0.96875 	0.5 	39.0309 	0.452618 	1.68426e-18
-0.203125 	-0.96875 	0.5 	39.0225 	0.447039 	1.10086e-18
-0.1875 	-0.96875 	0.5 	39.0143 	0.440747 	6.99244e-19
-0.171875 	-0.96875 	0.5 	39.0061 	0.431948 	3.87966e-19
-0.15625 	-0.96875 	0.5 	38.9978 	0.423178 	8.52601e-20
-0.140625 	-0.96875 	0.5 	38.9898 	0.41571 	1.33024e-19
-0.125 	-0.96875 	0.5 	38.9845 	0.407177 	9.2535e-19
-0.109375 	-0.96875 	0.5 	38.9782 	0.399107 	7.20438e-19
-0.09375 	-0.96875 	0.5 	38.9718 	0.391132 	2.84324e-19
-0.078125 	-0.96875 	0.5 	38.9639 	0.383591 	1.10359e-19
-0.0625 	-0.96875 	0.5 	38.956 	0.375796 	-9.32207e-20
-0.046875 	-0.96875 	0.5 	38.9488 	0.366711 	-3.37424e-19
-0.03125 	-0.96875 	0.5 	38.9416 	0.358328 	5.40358e-19
-0.015625 	-0.96875 	0.5 	38.9343 	0.349972 	1.8645e-18
0 	-0.96875 	0.5 	38.929 	0.341955 	6.09748e-20
0.015625 	-0.96875 	0.5 	38.9228 	0.333696 	9.09837e-20
0.03125 	-0.96875 	0.5 	38.9181 	0.323679 	3.7582e-19
0.046875 	-0.96875 	0.5 	38.9117 	0.31481 	8.70761e-19
0.0625 	-0.96875 	0.5 	38.9051 	0.30588 	9.04633e-19
0.078125 	-0.96875 	0.5 	38.8986 	0.296066 	-1.06316e-18
0.09375 	-0.96875 	0.5 	38.8929 	0.28603 	3.53103e-18
0.109375 	-0.96875 	0.5 	38.8871 	0.275438 	1.64809e-18
0.125 	-0.96875 	0.5 	38.8811 	0.265022 	-3.74119e-19
0.140625 	-0.96875 	0.5 	38.8758 	0.255638 	-7.26054e-19
0.15625 	-0.96875 	0.5 	38.8707 	0.245076 	7.01073e-19
0.171875 	-0.96875 	0.5 	38.8656 	0.234961 	1.35889e-18
0.1875 	-0.96875 	0.5 	38.8603 	0.224074 	8.21057e-19
0.203125 	-0.96875 	0.5 	38.8553 	0.213417 	1.15e-18
0.21875 	-0.96875 	0.5 	38.8504 	0.202792 	8.0244e-19
0.234375 	-0.96875 	0.5 	38.8452 	0.192192 	1.78481e-18
0.25 	-0.96875 	0.5 	38.8402 	0.181084 	8.9119e-19
0.265625 	-0.96875 	0.5 	38.8361 	0.169537 	-1.5779e-18
0.28125 	-0.96875 	0.5 	38.8318 	0.15799 	-3.18843e-18
0.296875 	-0.96875 	0.5 	38.8278 	0.145527 	-7.22719e-19
0.3125 	-0.96875 	0.5 	38.8231 	0.1337 	-7.03942e-19
0.328125 	-0.96875 	0.5 	38.8197 	0.121742 	6.20315e-19
0.34375 	-0.96875 	0.5 	38.8165 	0.109694 	-1.43872e-18
0.359375 	-0.96875 	0.5 	38.8135 	0.0969733 	-2.07634e-18
0.375 	-0.96875 	0.5 	38.81 	0.084889 	-8.41934e-19
0.390625 	-0.96875 	0.5 	38.8065 	0.0726474 	2.15124e-19
0.40625 	-0.96875 	0.5 	38.8044 	0.0598179 	2.45307e-19
0.421875 	-0.96875 	0.5 	38.8022 	0.0469219 	5.87144e-19
0.4375 	-0.96875 	0.5 	38.8004 	0.034127 	6.47065e-19
0.453125 	-0.96875 	0.5 	38.7986 	0.0213664 	-9.38141e-19
0.46875 	-0.96875 	0.5 	38.7969 	0.00748259 	-5.55334e-19
0.484375 	-0.96875 	0.5 	38.7946 	-0.00676202 	-5.71009e-19
0.5 	-0.96875 	0.5 	38.7934 	-0.0205608 	-2.25991e-19
0.515625 	-0.96875 	0.5 	38.7925 	-0.0343165 	4.94469e-19
0.53125 	-0.96875 	0.5 	38.7913 	-0.0481118 	-7.33394e-20
0.546875 	-0.96875 	0.5 	38.7918 	-0.0628327 	-9.61281e-21
0.5625 	-0.96875 	0.5 	38.7916 	-0.0762929 	-1.13255e-19
0.578125 	-0.96875 	0.5 	38.7909 	-0.0891082 	-1.51881e-19
0.59375 	-0.96875 	0.5 	38.7925 	-0.102369 	-8.01481e-20
0.609375 	-0.96875 	0.5 	38.7941 	-0.116363 	-1.99221e-20
0.625 	-0.96875 	0.5 	38.7951 	-0.131482 	4.63099e-20
0.640625 	-0.96875 	0.5 	38.7974 	-0.144861 	-9.16412e-20
0.65625 	-0.96875 	0.5 	38.8001 	-0.158422 	1.25952e-20
0.671875 	-0.96875 	0.5 	38.8008 	-0.172475 	-2.30941e-20
0.6875 	-0.96875 	0.5 	38.8035 	-0.18573 	-6.16987e-19
0.703125 	-0.96875 	0.5 	38.8068 	-0.20016 	1.39595e-18
0.71875 	-0.96875 	0.5 	38.8113 	-0.214799 	8.01739e-19
0.734375 	-0.96875 	0.5 	38.8134 	-0.228219 	-1.21723e-18
0.75 	-0.96875 	0.5 	38.8184 	-0.241396 	-8.13847e-19
0.765625 	-0.96875 	0.5 	38.8233 	-0.254486 	-4.86081e-19
0.78125 	-0.96875 	0.5 	38.828 	-0.269054 	-1.31515e-18
0.796875 	-0.96875 	0.5 	38.8334 	-0.281514 	-8.67977e-19
0.8125 	-0.96875 	0.5 	38.8388 	-0.293974 	-4.20808e-19
0.828125 	-0.96875 	0.5 	38.8447 	-0.307266 	-5.57517e-19
0.84375 	-0.96875 	0.5 	38.8514 	-0.32139 	-1.32174e-18
0.859375 	-0.96875 	0.5 	38.8579 	-0.334819 	-1.31144e-18
0.875 	-0.96875 	0.5 	38.866 	-0.347022 	-8.45521e-19
0.890625 	-0.96875 	0.5 	38.8717 	-0.359529 	-2.35622e-19
0.90625 	-0.96875 	0.5 	38.8788 	-0.371907 	-1.88128e-20
0.921875 	-0.96875 	0.5 	38.8874 	-0.384039 	-1.16295e-20
0.9375 	-0.96875 	0.5 	38.8945 	-0.396324 	-3.88638e-20
0.953125 	-0.96875 	0.5 	38.9035 	-0.405762 	5.34211e-19
0.96875 	-0.96875 	0.5 	38.9133 	-0.417597 	1.65141e-18
0.984375 	-0.96875 	0.5 	38.9217 	-0.429945 	-1.92269e-19
1 	-0.96875 	0.5 	38.9308 	-0.441027 	-1.05432e-19
1.01562 	-0.96875 	0.5 	38.9376 	-0.452894 	7.87936e-19
1.03125 	-0.96875 	0.5 	38.9483 	-0.462253 	-9.82165e-19
1.04688 	-0.96875 	0.5 	38.9571 	-0.472236 	-1.66682e-18
1.0625 	-0.96875 	0.5 	38.965 	-0.481919 	-6.00562e-19
1.07812 	-0.96875 	0.5 	38.9752 	-0.490106 	2.17118e-18
1.09375 	-0.96875 	0.5 	38.9851 	-0.502214 	9.51636e-19
1.10938 	-0.96875 	0.5 	38.9956 	-0.510411 	3.12975e-19
1.125 	-0.96875 	0.5 	39.007 	-0.519571 	-3.55268e-19
1.14062 	-0.96875 	0.5 	39.0172 	-0.527969 	1.20044e-18
1.15625 	-0.96875 	0.5 	39.0276 	-0.536448 	7.68885e-19
1.17188 	-0.96875 	0.5 	39.0375 	-0.545304 	-1.72661e-18
1.1875 	-0.96875 	0.5 	39.048 	-0.552576 	-1.73438e-18
1.20312 	-0.96875 	0.5 	39.0587 	-0.559254 	-9.30365e-19
1.21875 	-0.96875 	0.5 	39.0694 	-0.565624 	-4.90928e-19
1.23438 	-0.96875 	0.5 	39.0804 	-0.572143 	-8.2346e-19
1.25 	-0.96875 	0.5 	39.0915 	-0.578662 	-1.15599e-18
1.26562 	-0.96875 	0.5 	39.1029 	-0.585418 	2.0625e-19
1.28125 	-0.96875 	0.5 	39.1149 	-0.591856 	3.00297e-19
1.29688 	-0.96875 	0.5 	39.1264 	-0.598375 	4.91708e-19
1.3125 	-0.96875 	0.5 	39.1388 	-0.604184 	1.5432e-18
1.32812 	-0.96875 	0.5 	39.1498 	-0.608455 	3.7284e-19
1.34375 	-0.96875 	0.5 	39.1604 	-0.613482 	-1.00349e-18
1.35938 	-0.96875 	0.5 	39.1712 	-0.617078 	-2.72958e-19
1.375 	-0.96875 	0.5 	39.1812 	-0.621878 	-3.05942e-19
1.39062 	-0.96875 	0.5 	39.1928 	-0.622631 	-7.86519e-20
1.40625 	-0.96875 	0.5 	39.2046 	-0.62807 	2.16109e-19
1.42188 	-0.96875 	0.5 	39.2169 	-0.632503 	7.61702e-19
1.4375 	-0.96875 	0.5 	39.2284 	-0.633981 	5.88344e-19
1.45312 	-0.96875 	0.5 	39.2386 	-0.637297 	-5.22579e-19
1.46875 	-0.96875 	0.5 	39.2497 	-0.640872 	-6.23407e-19
1.48438 	-0.96875 	0.5 	39.2604 	-0.644686 	-2.77706e-19
-0.5 	-0.953125 	0.5 	39.1745 	0.561388 	-2.22079e-18
-0.484375 	-0.953125 	0.5 	39.166 	0.556256 	1.99338e-18
-0.46875 	-0.953125 	0.5 	39.1577 	0.551508 	-1.00184e-19
-0.453125 	-0.953125 	0.5 	39.1493 	0.545634 	5.63917e-20
-0.4375 	-0.953125 	0.5 	39.1396 	0.539229 	1.56687e-19
-0.421875 	-0.953125 	0.5 	39.1307 	0.533599 	8.95233e-20
-0.40625 	-0.953125 	0.5 	39.1218 	0.529158 	-1.49765e-20
-0.390625 	-0.953125 	0.5 	39.113 	0.52537 	-3.12632e-19
-0.375 	-0.953125 	0.5 	39.1041 	0.521581 	-6.10288e-19
-0.359375 	-0.953125 	0.5 	39.0967 	0.516973 	-1.54773e-18
-0.34375 	-0.953125 	0.5 	39.0876 	0.510593 	-9.04379e-19
-0.328125 	-0.953125 	0.5 	39.0788 	0.503665 	-4.25825e-19
-0.3125 	-0.953125 	0.5 	39.07 	0.49737 	-1.35642e-19
-0.296875 	-0.953125 	0.5 	39.0601 	0.489679 	-5.57929e-19
-0.28125 	-0.953125 	0.5 	39.0507 	0.482336 	-1.19568e-18
-0.265625 	-0.953125 	0.5 	39.0414 	0.475174 	-1.44132e-18
-0.25 	-0.953125 	0.5 	39.0349 	0.469924 	3.47738e-19
-0.234375 	-0.953125 	0.5 	39.0271 	0.464554 	1.75404e-19
-0.21875 	-0.953125 	0.5 	39.0202 	0.458909 	7.53346e-19
-0.203125 	-0.953125 	0.5 	39.0133 	0.453679 	1.2564e-18
-0.1875 	-0.953125 	0.5 	39.004 	0.446872 	1.08668e-18
-0.171875 	-0.953125 	0.5 	38.9966 	0.438829 	1.85529e-19
-0.15625 	-0.953125 	0.5 	38.9886 	0.43051 	-9.09949e-20
-0.140625 	-0.953125 	0.5 	38.9812 	0.423433 	-1.32264e-18
-0.125 	-0.953125 	0.5 	38.973 	0.415125 	6.20432e-19
-0.109375 	-0.953125 	0.5 	38.9665 	0.40715 	1.38365e-19
-0.09375 	-0.953125 	0.5 	38.9607 	0.39811 	8.49365e-20
-0.078125 	-0.953125 	0.5 	38.9537 	0.3904 	5.25895e-20
-0.0625 	-0.953125 	0.5 	38.9459 	0.382509 	-1.52413e-19
-0.046875 	-0.953125 	0.5 	38.939 	0.373317 	-5.00106e-19
-0.03125 	-0.953125 	0.5 	38.9318 	0.364944 	-4.08885e-19
-0.015625 	-0.953125 	0.5 	38.9247 	0.356342 	4.6038e-19
0 	-0.953125 	0.5 	38.9185 	0.348275 	-6.48054e-20
0.015625 	-0.953125 	0.5 	38.9132 	0.338963 	1.17877e-19
0.03125 	-0.953125 	0.5 	38.9073 	0.330281 	1.30243e-19
0.046875 	-0.953125 	0.5 	38.9005 	0.320514 	1.06429e-19
0.0625 	-0.953125 	0.5 	38.8938 	0.311828 	5.01632e-19
0.078125 	-0.953125 	0.5 	38.8869 	0.301932 	-3.59362e-18
0.09375 	-0.953125 	0.5 	38.8817 	0.291519 	8.8622e-19
0.109375 	-0.953125 	0.5 	38.8758 	0.281142 	2.46738e-20
0.125 	-0.953125 	0.5 	38.8698 	0.271299 	-2.32642e-18
0.140625 	-0.953125 	0.5 	38.8638 	0.260186 	2.26872e-19
0.15625 	-0.953125 	0.5 	38.8586 	0.250056 	7.34548e-19
0.171875 	-0.953125 	0.5 	38.8533 	0.2396 	5.50429e-19
0.1875 	-0.953125 	0.5 	38.8478 	0.229625 	4.10556e-19
0.203125 	-0.953125 	0.5 	38.8423 	0.218516 	1.08041e-22
0.21875 	-0.953125 	0.5 	38.837 	0.207745 	2.55983e-18
0.234375 	-0.953125 	0.5 	38.8319 	0.197072 	2.36312e-18
0.25 	-0.953125 	0.5 	38.827 	0.185376 	1.07097e-18
0.265625 	-0.953125 	0.5 	38.8234 	0.17323 	2.76757e-19
0.28125 	-0.953125 	0.5 	38.8193 	0.161763 	-2.4914e-18
0.296875 	-0.953125 	0.5 	38.8145 	0.149613 	-1.22447e-18
0.3125 	-0.953125 	0.5 	38.8106 	0.137668 	-7.65839e-19
0.328125 	-0.953125 	0.5 	38.8063 	0.125839 	-8.1751e-20
0.34375 	-0.953125 	0.5 	38.8021 	0.11323 	1.37118e-20
0.359375 	-0.953125 	0.5 	38.7986 	0.100053 	9.57631e-19
0.375 	-0.953125 	0.5 	38.7953 	0.0877486 	8.62249e-19
0.390625 	-0.953125 	0.5 	38.7919 	0.0756734 	5.59047e-20
0.40625 	-0.953125 	0.5 	38.7886 	0.0619041 	5.969e-19
0.421875 	-0.953125 	0.5 	38.7868 	0.0499776 	1.39509e-18
0.4375 	-0.953125 	0.5 	38.7856 	0.0360593 	2.63291e-19
0.453125 	-0.953125 	0.5 	38.7838 	0.0223228 	2.75153e-20
0.46875 	-0.953125 	0.5 	38.7803 	0.0103764 	-2.7808e-18
0.484375 	-0.953125 	0.5 	38.7793 	-0.00604435 	-3.01005e-19
0.5 	-0.953125 	0.5 	38.7778 	-0.0206347 	-1.84073e-20
0.515625 	-0.953125 	0.5 	38.7762 	-0.0338392 	-2.28358e-20
0.53125 	-0.953125 	0.5 	38.7755 	-0.0485309 	-6.62162e-21
0.546875 	-0.953125 	0.5 	38.7754 	-0.0624535 	-5.30435e-20
0.5625 	-0.953125 	0.5 	38.7754 	-0.0761839 	-1.13695e-19
0.578125 	-0.953125 	0.5 	38.7754 	-0.0895085 	-2.04378e-19
0.59375 	-0.953125 	0.5 	38.7765 	-0.104068 	-1.24321e-19
0.609375 	-0.953125 	0.5 	38.7779 	-0.118397 	-4.20089e-20
0.625 	-0.953125 	0.5 	38.779 	-0.132199 	3.44643e-20
0.640625 	-0.953125 	0.5 	38.7806 	-0.146883 	-5.79042e-19
0.65625 	-0.953125 	0.5 	38.7823 	-0.160673 	-3.44808e-19
0.671875 	-0.953125 	0.5 	38.784 	-0.174465 	-8.85829e-20
0.6875 	-0.953125 	0.5 	38.7867 	-0.188691 	2.96016e-19
0.703125 	-0.953125 	0.5 	38.7913 	-0.20381 	1.82668e-18
0.71875 	-0.953125 	0.5 	38.7959 	-0.218764 	2.62364e-18
0.734375 	-0.953125 	0.5 	38.799 	-0.232302 	-4.72691e-19
0.75 	-0.953125 	0.5 	38.8033 	-0.244361 	2.24997e-21
0.765625 	-0.953125 	0.5 	38.8082 	-0.258476 	-6.06691e-20
0.78125 	-0.953125 	0.5 	38.8138 	-0.27432 	-7.3346e-19
0.796875 	-0.953125 	0.5 	38.8195 	-0.286513 	1.48473e-20
0.8125 	-0.953125 	0.5 	38.8241 	-0.299937 	1.31801e-18
0.828125 	-0.953125 	0.5 	38.8287 	-0.313809 	8.3329e-19
0.84375 	-0.953125 	0.5 	38.833 	-0.32927 	1.85625e-19
0.859375 	-0.953125 	0.5 	38.8423 	-0.342528 	1.541e-20
0.875 	-0.953125 	0.5 	38.8525 	-0.354921 	-3.64538e-19
0.890625 	-0.953125 	0.5 	38.8575 	-0.36731 	-1.11957e-19
0.90625 	-0.953125 	0.5 	38.8641 	-0.380128 	-8.62905e-20
0.921875 	-0.953125 	0.5 	38.8721 	-0.39246 	-4.1203e-20
0.9375 	-0.953125 	0.5 	38.8839 	-0.403398 	-1.18442e-19
0.953125 	-0.953125 	0.5 	38.893 	-0.414482 	3.83253e-19
0.96875 	-0.953125 	0.5 	38.9008 	-0.427387 	-3.85881e-19
0.984375 	-0.953125 	0.5 	38.9081 	-0.439558 	-7.98873e-21
1 	-0.953125 	0.5 	38.917 	-0.451006 	3.86897e-19
1.01562 	-0.953125 	0.5 	38.925 	-0.462209 	2.64748e-19
1.03125 	-0.953125 	0.5 	38.9359 	-0.471183 	-1.22047e-18
1.04688 	-0.953125 	0.5 	38.9458 	-0.481442 	-7.996e-19
1.0625 	-0.953125 	0.5 	38.9551 	-0.491249 	2.23242e-19
1.07812 	-0.953125 	0.5 	38.9641 	-0.501764 	5.87769e-19
1.09375 	-0.953125 	0.5 	38.9738 	-0.511927 	8.77285e-19
1.10938 	-0.953125 	0.5 	38.9865 	-0.520352 	5.3347e-21
1.125 	-0.953125 	0.5 	38.9969 	-0.530507 	-8.15145e-19
1.14062 	-0.953125 	0.5 	39.0081 	-0.53894 	-6.88492e-19
1.15625 	-0.953125 	0.5 	39.0189 	-0.547304 	5.47885e-19
1.17188 	-0.953125 	0.5 	39.0294 	-0.5549 	-1.21316e-19
1.1875 	-0.953125 	0.5 	39.0403 	-0.562048 	-9.05764e-19
1.20312 	-0.953125 	0.5 	39.0508 	-0.56958 	-1.0717e-18
1.21875 	-0.953125 	0.5 	39.0629 	-0.577616 	-1.12809e-19
1.23438 	-0.953125 	0.5 	39.0735 	-0.58493 	-5.40872e-19
1.25 	-0.953125 	0.5 	39.0848 	-0.591289 	-4.91105e-19
1.26562 	-0.953125 	0.5 	39.0953 	-0.597568 	-6.36283e-19
1.28125 	-0.953125 	0.5 	39.1077 	-0.603474 	5.07444e-19
1.29688 	-0.953125 	0.5 	39.1192 	-0.609955 	8.50006e-19
1.3125 	-0.953125 	0.5 	39.1317 	-0.615719 	1.99929e-18
1.32812 	-0.953125 	0.5 	39.1428 	-0.620094 	1.11188e-18
1.34375 	-0.953125 	0.5 	39.1538 	-0.624414 	7.36819e-20
1.35938 	-0.953125 	0.5 	39.1657 	-0.628954 	-6.8791e-19
1.375 	-0.953125 	0.5 	39.1775 	-0.632883 	-2.26293e-19
1.39062 	-0.953125 	0.5 	39.1892 	-0.63616 	3.7342e-20
1.40625 	-0.953125 	0.5 	39.2009 	-0.639438 	3.00977e-19
1.42188 	-0.953125 	0.5 	39.2132 	-0.643821 	8.2684e-19
1.4375 	-0.953125 	0.5 	39.224 	-0.646242 	1.85471e-19
1.45312 	-0.953125 	0.5 	39.2347 	-0.648697 	-4.71934e-19
1.46875 	-0.953125 	0.5 	39.2462 	-0.650916 	-9.40421e-19
1.48438 	-0.953125 	0.5 	39.2557 	-0.652215 	-2.60728e-18
-0.5 	-0.9375 	0.5 	39.1689 	0.569691 	9.59671e-19
-0.484375 	-0.9375 	0.5 	39.1606 	0.565351 	4.57621e-18
-0.46875 	-0.9375 	0.5 	39.1514 	0.560678 	3.08622e-19
-0.453125 	-0.9375 	0.5 	39.1439 	0.555439 	-1.53145e-19
-0.4375 	-0.9375 	0.5 	39.1338 	0.548838 	-7.36251e-20
-0.421875 	-0.9375 	0.5 	39.1243 	0.544051 	7.27887e-19
-0.40625 	-0.9375 	0.5 	39.1141 	0.542152 	1.73188e-18
-0.390625 	-0.9375 	0.5 	39.1053 	0.53833 	1.39133e-18
-0.375 	-0.9375 	0.5 	39.0973 	0.532534 	-2.66857e-19
-0.359375 	-0.9375 	0.5 	39.0883 	0.526328 	-3.85098e-19
-0.34375 	-0.9375 	0.5 	39.0802 	0.515566 	-1.06774e-19
-0.328125 	-0.9375 	0.5 	39.0712 	0.510909 	1.91458e-19
-0.3125 	-0.9375 	0.5 	39.0618 	0.506693 	1.40564e-18
-0.296875 	-0.9375 	0.5 	39.0514 	0.501883 	-1.36193e-18
-0.28125 	-0.9375 	0.5 	39.0412 	0.492552 	-1.42355e-18
-0.265625 	-0.9375 	0.5 	39.0316 	0.482177 	-9.50712e-19
-0.25 	-0.9375 	0.5 	39.0251 	0.476461 	8.74625e-20
-0.234375 	-0.9375 	0.5 	39.0187 	0.471009 	1.04576e-18
-0.21875 	-0.9375 	0.5 	39.0123 	0.465557 	2.00405e-18
-0.203125 	-0.9375 	0.5 	39.0031 	0.461342 	4.22344e-19
-0.1875 	-0.9375 	0.5 	38.994 	0.453256 	8.65533e-19
-0.171875 	-0.9375 	0.5 	38.9868 	0.445474 	3.63402e-20
-0.15625 	-0.9375 	0.5 	38.9789 	0.437921 	3.35935e-19
-0.140625 	-0.9375 	0.5 	38.9705 	0.4305 	4.07476e-19
-0.125 	-0.9375 	0.5 	38.9623 	0.422933 	-5.96649e-22
-0.109375 	-0.9375 	0.5 	38.9556 	0.414037 	5.44943e-20
-0.09375 	-0.9375 	0.5 	38.9497 	0.404826 	-6.36829e-20
-0.078125 	-0.9375 	0.5 	38.9439 	0.395632 	-8.74722e-20
-0.0625 	-0.9375 	0.5 	38.9367 	0.387337 	-2.75691e-19
-0.046875 	-0.9375 	0.5 	38.9293 	0.379487 	-4.44818e-19
-0.03125 	-0.9375 	0.5 	38.9221 	0.371211 	-4.02551e-19
-0.015625 	-0.9375 	0.5 	38.9149 	0.362936 	-3.60285e-19
0 	-0.9375 	0.5 	38.9083 	0.354247 	-1.40066e-19
0.015625 	-0.9375 	0.5 	38.9021 	0.345283 	-1.66893e-19