# Force coefficients
# liftDir    : (0.000000e+00 1.000000e+00 0.000000e+00)
# dragDir    : (1.000000e+00 0.000000e+00 0.000000e+00)
# pitchAxis  : (0.000000e+00 0.000000e+00 1.000000e+00)
# magUInf    : 5.939300e+01
# lRef       : 1.000000e+00
# Aref       : 1.000000e+00
# CofR       : (0.000000e+00 0.000000e+00 0.000000e+00)
# Time       	Cm           	Cd           	Cl           	Cl(f)        	Cl(r)        
1            	1.299723e+00	2.223443e+00	-5.794971e-01	1.009974e+00	-1.589471e+00
2            	1.037270e+00	1.794313e+00	-4.370216e-01	8.187587e-01	-1.255780e+00
3            	-4.501336e-02	-1.801575e-01	2.682725e-01	8.912290e-02	1.791496e-01
4            	-6.345904e-01	-1.282491e+00	6.160888e-01	-3.265460e-01	9.426348e-01
5            	-4.595104e-01	-9.569743e-01	4.155962e-01	-2.517123e-01	6.673085e-01
6            	1.008357e-01	2.719610e-01	-2.301854e-01	-1.425695e-02	-2.159284e-01
7            	3.787565e-01	8.589025e-01	-4.630338e-01	1.472396e-01	-6.102734e-01
8            	2.772693e-01	5.515147e-01	-1.790108e-01	1.877639e-01	-3.667747e-01
9            	3.136295e-02	-1.563704e-01	3.162445e-01	1.894852e-01	1.267593e-01
10           	-1.131327e-01	-4.888631e-01	4.438576e-01	1.087961e-01	3.350615e-01
11           	-7.504392e-02	-2.882582e-01	2.030550e-01	2.648356e-02	1.765714e-01
12           	3.024257e-02	1.380397e-01	-1.659133e-01	-5.271406e-02	-1.131992e-01
13           	1.037035e-01	3.266410e-01	-2.395816e-01	-1.608729e-02	-2.234943e-01
14           	9.777136e-02	1.958424e-01	-4.819675e-02	7.367298e-02	-1.218697e-01
15           	6.317706e-02	-6.212433e-02	2.220797e-01	1.742169e-01	4.786276e-02
16           	2.841332e-02	-1.707159e-01	2.691491e-01	1.629879e-01	1.061612e-01
17           	2.148524e-02	-8.763157e-02	1.254218e-01	8.419612e-02	4.122564e-02
18           	2.428514e-02	6.730072e-02	-6.950178e-02	-1.046574e-02	-5.903603e-02
19           	3.942442e-02	1.291519e-01	-1.017952e-01	-1.147319e-02	-9.032203e-02
20           	5.189553e-02	7.632527e-02	3.684213e-03	5.373764e-02	-5.005342e-02
21           	6.272834e-02	-1.691884e-02	1.424404e-01	1.339485e-01	8.491841e-03
22           	5.933529e-02	-5.001525e-02	1.662850e-01	1.424778e-01	2.380722e-02
23           	4.419264e-02	-1.798148e-02	8.469440e-02	8.653984e-02	-1.845444e-03
24           	3.287418e-02	3.288503e-02	-1.791088e-03	3.197864e-02	-3.376972e-02
25           	3.428887e-02	5.064847e-02	-1.384320e-02	2.736727e-02	-4.121047e-02
26           	4.679043e-02	3.324080e-02	4.016550e-02	6.687318e-02	-2.670768e-02
27           	5.521919e-02	6.578835e-03	8.895054e-02	9.969446e-02	-1.074393e-02
28           	5.511537e-02	-4.203123e-03	9.597232e-02	1.031015e-01	-7.129211e-03
29           	4.698271e-02	3.952007e-03	6.390438e-02	7.893490e-02	-1.503052e-02
30           	4.073776e-02	1.869435e-02	3.337588e-02	5.742570e-02	-2.404983e-02
31           	4.148292e-02	2.440017e-02	3.161987e-02	5.729286e-02	-2.567298e-02
32           	4.829676e-02	2.035930e-02	5.395914e-02	7.527633e-02	-2.131719e-02
33           	5.323116e-02	1.297777e-02	7.293741e-02	8.969986e-02	-1.676245e-02
34           	5.417686e-02	9.317071e-03	7.696647e-02	9.266009e-02	-1.569362e-02
35           	5.101172e-02	1.066666e-02	6.637368e-02	8.419857e-02	-1.782488e-02
36           	4.801390e-02	1.447683e-02	5.534240e-02	7.568510e-02	-2.034271e-02
37           	4.718634e-02	1.667959e-02	5.209650e-02	7.323459e-02	-2.113809e-02
38           	4.870865e-02	1.630384e-02	5.676399e-02	7.709064e-02	-2.032665e-02
39           	5.135150e-02	1.427768e-02	6.461384e-02	8.365842e-02	-1.904458e-02
40           	5.266879e-02	1.283544e-02	6.819683e-02	8.676721e-02	-1.857038e-02
41           	5.247217e-02	1.274037e-02	6.711646e-02	8.603040e-02	-1.891394e-02
42           	5.115010e-02	1.359506e-02	6.314447e-02	8.272233e-02	-1.957787e-02
43           	5.031267e-02	1.434793e-02	6.089412e-02	8.075973e-02	-1.986561e-02
44           	5.049728e-02	1.438811e-02	6.158602e-02	8.129029e-02	-1.970426e-02
45           	5.132210e-02	1.398778e-02	6.368335e-02	8.316377e-02	-1.948042e-02
46           	5.254748e-02	1.349568e-02	6.654799e-02	8.582148e-02	-1.927349e-02
47           	5.275235e-02	1.341261e-02	6.696025e-02	8.623248e-02	-1.927223e-02
48           	5.273587e-02	1.349573e-02	6.679827e-02	8.613500e-02	-1.933674e-02
49           	5.247235e-02	1.362645e-02	6.623986e-02	8.559228e-02	-1.935242e-02
50           	5.245490e-02	1.361709e-02	6.640712e-02	8.565847e-02	-1.925134e-02
51           	5.255680e-02	1.353114e-02	6.681603e-02	8.596481e-02	-1.914878e-02
52           	5.284970e-02	1.342483e-02	6.760772e-02	8.665356e-02	-1.904584e-02
53           	5.336775e-02	1.334888e-02	6.881910e-02	8.777730e-02	-1.895820e-02
54           	5.377210e-02	1.333186e-02	6.970511e-02	8.862465e-02	-1.891954e-02
55           	5.392301e-02	1.333809e-02	7.004272e-02	8.894437e-02	-1.890165e-02
56           	5.393581e-02	1.333094e-02	7.013264e-02	8.900213e-02	-1.886949e-02
57           	5.387178e-02	1.329434e-02	7.012480e-02	8.893417e-02	-1.880938e-02
58           	5.383433e-02	1.322658e-02	7.020376e-02	8.893621e-02	-1.873245e-02
59           	5.388071e-02	1.315851e-02	7.042960e-02	8.909550e-02	-1.866591e-02
60           	5.399051e-02	1.310498e-02	7.077396e-02	8.937749e-02	-1.860353e-02
61           	5.422430e-02	1.305877e-02	7.143557e-02	8.994208e-02	-1.850652e-02
62           	5.453605e-02	1.303467e-02	7.227967e-02	9.067588e-02	-1.839621e-02
63           	5.475323e-02	1.303110e-02	7.287587e-02	9.119116e-02	-1.831529e-02
64           	5.484378e-02	1.302540e-02	7.316316e-02	9.142536e-02	-1.826220e-02
65           	5.487495e-02	1.300816e-02	7.333394e-02	9.154192e-02	-1.820797e-02
66           	5.489199e-02	1.297137e-02	7.352847e-02	9.165622e-02	-1.812775e-02
67           	5.492874e-02	1.291734e-02	7.379400e-02	9.182574e-02	-1.803174e-02
68           	5.498644e-02	1.286519e-02	7.408325e-02	9.202806e-02	-1.794481e-02
69           	5.506518e-02	1.281774e-02	7.441682e-02	9.227360e-02	-1.785677e-02
70           	5.520675e-02	1.277096e-02	7.493379e-02	9.267364e-02	-1.773985e-02
71           	5.538615e-02	1.274280e-02	7.552268e-02	9.314749e-02	-1.762482e-02
72           	5.553518e-02	1.273666e-02	7.598617e-02	9.352827e-02	-1.754209e-02
73           	5.556742e-02	1.272225e-02	7.607429e-02	9.360456e-02	-1.753027e-02
74           	5.563129e-02	1.271271e-02	7.639537e-02	9.382897e-02	-1.743360e-02
75           	5.570028e-02	1.269126e-02	7.678408e-02	9.409232e-02	-1.730824e-02
76           	5.573906e-02	1.267059e-02	7.692629e-02	9.420221e-02	-1.727592e-02
77           	5.584291e-02	1.260951e-02	7.750100e-02	9.459341e-02	-1.709241e-02
78           	5.599319e-02	1.256948e-02	7.810248e-02	9.504443e-02	-1.694195e-02
79           	5.606311e-02	1.254343e-02	7.834101e-02	9.523361e-02	-1.689260e-02
80           	5.628148e-02	1.248303e-02	7.919314e-02	9.587805e-02	-1.668491e-02
81           	5.632988e-02	1.246329e-02	7.935720e-02	9.600848e-02	-1.665128e-02
82           	5.641524e-02	1.244473e-02	7.976829e-02	9.629938e-02	-1.653109e-02
83           	5.642909e-02	1.243355e-02	7.982716e-02	9.634267e-02	-1.651551e-02
84           	5.641669e-02	1.242989e-02	7.996007e-02	9.639673e-02	-1.643666e-02
85           	5.642677e-02	1.241818e-02	8.002811e-02	9.644083e-02	-1.641272e-02
86           	5.644018e-02	1.239451e-02	8.034634e-02	9.661335e-02	-1.626701e-02
87           	5.647227e-02	1.237645e-02	8.051112e-02	9.672782e-02	-1.621671e-02
88           	5.659957e-02	1.231952e-02	8.123377e-02	9.721646e-02	-1.598269e-02
89           	5.666699e-02	1.229699e-02	8.148656e-02	9.741027e-02	-1.592370e-02
90           	5.687732e-02	1.225989e-02	8.226378e-02	9.800921e-02	-1.574542e-02
91           	5.717480e-02	1.221222e-02	8.325647e-02	9.880304e-02	-1.554657e-02
92           	5.721584e-02	1.220087e-02	8.338199e-02	9.890684e-02	-1.552484e-02
93           	5.723334e-02	1.219141e-02	8.345672e-02	9.896170e-02	-1.550498e-02
94           	5.721113e-02	1.218441e-02	8.361265e-02	9.901746e-02	-1.540480e-02
95           	5.720642e-02	1.217471e-02	8.366637e-02	9.903960e-02	-1.537323e-02
96           	5.715535e-02	1.215742e-02	8.385866e-02	9.908468e-02	-1.522602e-02
97           	5.716116e-02	1.214499e-02	8.395469e-02	9.913850e-02	-1.518381e-02
98           	5.718359e-02	1.212727e-02	8.413412e-02	9.925064e-02	-1.511653e-02
99           	5.729314e-02	1.206809e-02	8.492698e-02	9.975663e-02	-1.482965e-02
100          	5.735927e-02	1.204790e-02	8.520209e-02	9.996031e-02	-1.475823e-02
101          	5.756786e-02	1.201640e-02	8.596334e-02	1.005495e-01	-1.458619e-02
102          	5.767119e-02	1.199933e-02	8.628623e-02	1.008143e-01	-1.452808e-02
103          	5.793872e-02	1.196507e-02	8.713826e-02	1.015078e-01	-1.436959e-02
104          	5.796819e-02	1.195543e-02	8.725014e-02	1.015933e-01	-1.434312e-02
105          	5.797445e-02	1.194607e-02	8.732415e-02	1.016365e-01	-1.431238e-02
106          	5.792232e-02	1.192748e-02	8.748789e-02	1.016663e-01	-1.417838e-02
107          	5.790980e-02	1.191612e-02	8.756169e-02	1.016906e-01	-1.412896e-02
108          	5.783920e-02	1.188789e-02	8.780837e-02	1.017434e-01	-1.393502e-02
109          	5.784541e-02	1.187623e-02	8.792218e-02	1.018065e-01	-1.388432e-02
110          	5.787044e-02	1.186229e-02	8.810179e-02	1.019213e-01	-1.381954e-02
111          	5.801716e-02	1.182845e-02	8.885689e-02	1.024456e-01	-1.358872e-02
112          	5.810551e-02	1.180931e-02	8.922006e-02	1.027155e-01	-1.349548e-02
113          	5.837874e-02	1.176602e-02	9.023380e-02	1.034956e-01	-1.326184e-02
114          	5.842920e-02	1.175594e-02	9.040452e-02	1.036315e-01	-1.322694e-02
115          	5.846552e-02	1.174723e-02	9.053463e-02	1.037328e-01	-1.319820e-02
116          	5.853975e-02	1.172851e-02	9.086610e-02	1.039728e-01	-1.310670e-02
117          	5.855486e-02	1.171867e-02	9.096698e-02	1.040384e-01	-1.307137e-02
118          	5.854929e-02	1.169104e-02	9.121427e-02	1.041564e-01	-1.294215e-02
119          	5.855107e-02	1.167951e-02	9.130699e-02	1.042046e-01	-1.289758e-02
120          	5.855168e-02	1.166433e-02	9.144264e-02	1.042730e-01	-1.283036e-02
121          	5.853590e-02	1.161535e-02	9.194945e-02	1.045106e-01	-1.256118e-02
122          	5.855701e-02	1.160191e-02	9.213423e-02	1.046241e-01	-1.248989e-02
123          	5.865615e-02	1.157550e-02	9.271685e-02	1.050146e-01	-1.229772e-02
124          	5.874146e-02	1.156854e-02	9.301754e-02	1.052502e-01	-1.223269e-02
125          	5.879916e-02	1.156390e-02	9.320687e-02	1.054026e-01	-1.219573e-02
126          	5.902168e-02	1.155386e-02	9.388695e-02	1.059652e-01	-1.207820e-02
127          	5.907942e-02	1.154668e-02	9.408033e-02	1.061196e-01	-1.203925e-02
128          	5.922907e-02	1.152110e-02	9.462945e-02	1.065438e-01	-1.191434e-02
129          	5.925027e-02	1.151099e-02	9.474413e-02	1.066223e-01	-1.187821e-02
130          	5.926487e-02	1.147443e-02	9.505038e-02	1.067901e-01	-1.173968e-02
131          	5.926447e-02	1.146122e-02	9.514664e-02	1.068378e-01	-1.169115e-02
132          	5.922182e-02	1.141555e-02	9.544077e-02	1.069422e-01	-1.150143e-02
133          	5.922289e-02	1.140545e-02	9.553811e-02	1.069919e-01	-1.145383e-02
134          	5.927017e-02	1.138942e-02	9.590712e-02	1.072237e-01	-1.131661e-02
135          	5.933589e-02	1.137547e-02	9.630795e-02	1.074899e-01	-1.118191e-02
136          	5.936475e-02	1.137128e-02	9.643202e-02	1.075808e-01	-1.114874e-02
137          	5.940816e-02	1.136682e-02	9.659841e-02	1.077074e-01	-1.110896e-02
138          	5.959267e-02	1.135238e-02	9.724896e-02	1.082172e-01	-1.096819e-02
139          	5.963287e-02	1.134593e-02	9.740785e-02	1.083368e-01	-1.092894e-02
140          	5.975059e-02	1.132206e-02	9.788351e-02	1.086923e-01	-1.080883e-02
141          	5.977756e-02	1.131234e-02	9.801293e-02	1.087840e-01	-1.077109e-02
142          	5.983860e-02	1.127288e-02	9.840524e-02	1.090412e-01	-1.063598e-02
143          	5.984869e-02	1.126340e-02	9.849777e-02	1.090976e-01	-1.059981e-02
144          	5.984923e-02	1.123438e-02	9.874679e-02	1.092226e-01	-1.047584e-02
145          	5.984588e-02	1.121212e-02	9.896747e-02	1.093296e-01	-1.036214e-02
146          	5.985240e-02	1.120709e-02	9.904323e-02	1.093740e-01	-1.033078e-02
147          	5.988034e-02	1.119562e-02	9.931934e-02	1.095400e-01	-1.022067e-02
148          	5.989832e-02	1.119151e-02	9.942724e-02	1.096119e-01	-1.018470e-02
149          	5.999772e-02	1.118116e-02	9.987536e-02	1.099354e-01	-1.006004e-02
150          	6.013747e-02	1.116257e-02	1.004340e-01	1.103545e-01	-9.920464e-03
151          	6.016904e-02	1.115687e-02	1.005548e-01	1.104464e-01	-9.891664e-03
152          	6.019808e-02	1.114987e-02	1.006731e-01	1.105346e-01	-9.861547e-03
153          	6.029244e-02	1.112110e-02	1.010814e-01	1.108331e-01	-9.751764e-03
154          	6.031419e-02	1.111135e-02	1.012012e-01	1.109148e-01	-9.713576e-03
155          	6.036762e-02	1.107803e-02	1.015580e-01	1.111466e-01	-9.588622e-03
156          	6.037749e-02	1.106982e-02	1.016471e-01	1.112010e-01	-9.553945e-03
157          	6.038647e-02	1.104667e-02	1.018808e-01	1.113269e-01	-9.446052e-03
158          	6.039041e-02	1.104037e-02	1.019578e-01	1.113693e-01	-9.411501e-03
159          	6.039123e-02	1.102191e-02	1.021907e-01	1.114866e-01	-9.295878e-03
160          	6.039920e-02	1.101721e-02	1.022734e-01	1.115359e-01	-9.262524e-03
161          	6.043214e-02	1.100433e-02	1.025345e-01	1.116994e-01	-9.164905e-03
162          	6.044998e-02	1.100004e-02	1.026300e-01	1.117650e-01	-9.134953e-03
163          	6.052803e-02	1.098447e-02	1.029748e-01	1.120154e-01	-9.040650e-03
164          	6.055807e-02	1.097861e-02	1.030973e-01	1.121067e-01	-9.009397e-03
165          	6.066329e-02	1.095699e-02	1.035040e-01	1.124153e-01	-8.911277e-03
166          	6.068849e-02	1.095109e-02	1.036113e-01	1.124942e-01	-8.882826e-03
167          	6.076368e-02	1.092886e-02	1.039551e-01	1.127412e-01	-8.786126e-03
168          	6.078499e-02	1.092115e-02	1.040682e-01	1.128191e-01	-8.750869e-03
169          	6.082760e-02	1.089498e-02	1.043803e-01	1.130177e-01	-8.637465e-03
170          	6.084862e-02	1.089023e-02	1.044966e-01	1.130969e-01	-8.600309e-03
171          	6.085252e-02	1.088035e-02	1.046423e-01	1.131737e-01	-8.531375e-03
172          	6.085356e-02	1.087152e-02	1.047657e-01	1.132364e-01	-8.470701e-03
173          	6.085637e-02	1.086835e-02	1.048078e-01	1.132603e-01	-8.452496e-03
174          	6.087570e-02	1.085449e-02	1.049805e-01	1.133660e-01	-8.385441e-03
175          	6.088395e-02	1.085018e-02	1.050401e-01	1.134040e-01	-8.363910e-03
176          	6.092779e-02	1.083240e-02	1.052830e-01	1.135693e-01	-8.286287e-03
177          	6.098822e-02	1.081203e-02	1.055611e-01	1.137688e-01	-8.207650e-03
178          	6.100913e-02	1.080640e-02	1.056480e-01	1.138331e-01	-8.185110e-03
179          	6.107984e-02	1.078826e-02	1.059316e-01	1.140456e-01	-8.114046e-03
180          	6.108909e-02	1.078585e-02	1.059844e-01	1.140813e-01	-8.096877e-03
181          	6.110946e-02	1.077856e-02	1.061379e-01	1.141784e-01	-8.040504e-03
182          	6.112800e-02	1.076933e-02	1.062973e-01	1.142767e-01	-7.979336e-03
183          	6.113420e-02	1.076607e-02	1.063484e-01	1.143084e-01	-7.959999e-03
184          	6.116165e-02	1.075130e-02	1.065399e-01	1.144316e-01	-7.891724e-03
185          	6.117057e-02	1.074701e-02	1.066016e-01	1.144714e-01	-7.869776e-03
186          	6.121431e-02	1.072970e-02	1.068356e-01	1.146321e-01	-7.796523e-03
187          	6.127302e-02	1.071126e-02	1.070886e-01	1.148173e-01	-7.728742e-03
188          	6.128818e-02	1.070767e-02	1.071505e-01	1.148634e-01	-7.712947e-03
189          	6.133792e-02	1.070255e-02	1.073329e-01	1.150044e-01	-7.671494e-03
190          	6.138067e-02	1.069568e-02	1.075024e-01	1.151318e-01	-7.629485e-03
191          	6.140183e-02	1.068976e-02	1.076151e-01	1.152094e-01	-7.594289e-03
192          	6.140285e-02	1.068707e-02	1.076438e-01	1.152248e-01	-7.580939e-03
193          	6.141258e-02	1.067216e-02	1.077776e-01	1.153014e-01	-7.523786e-03
194          	6.142208e-02	1.066056e-02	1.078898e-01	1.153670e-01	-7.477169e-03
195          	6.142346e-02	1.065883e-02	1.079140e-01	1.153805e-01	-7.466465e-03
196          	6.145283e-02	1.064974e-02	1.080554e-01	1.154805e-01	-7.425138e-03
197          	6.150518e-02	1.063768e-02	1.082463e-01	1.156283e-01	-7.382054e-03
198          	6.151639e-02	1.063507e-02	1.082936e-01	1.156632e-01	-7.369599e-03
199          	6.155229e-02	1.062561e-02	1.084366e-01	1.157706e-01	-7.333986e-03
200          	6.157497e-02	1.061735e-02	1.085515e-01	1.158507e-01	-7.299211e-03
201          	6.159159e-02	1.060796e-02	1.086571e-01	1.159202e-01	-7.263021e-03
202          	6.159603e-02	1.060558e-02	1.086942e-01	1.159431e-01	-7.248951e-03
203          	6.163026e-02	1.059591e-02	1.088630e-01	1.160618e-01	-7.198749e-03
204          	6.165713e-02	1.059159e-02	1.089827e-01	1.161485e-01	-7.165775e-03
205          	6.169734e-02	1.058835e-02	1.091171e-01	1.162559e-01	-7.138811e-03
206          	6.175876e-02	1.058208e-02	1.092893e-01	1.164034e-01	-7.114093e-03
207          	6.178443e-02	1.057368e-02	1.093797e-01	1.164743e-01	-7.094557e-03
208          	6.178103e-02	1.056822e-02	1.094075e-01	1.164848e-01	-7.077291e-03
209          	6.176570e-02	1.055958e-02	1.094287e-01	1.164800e-01	-7.051348e-03
210          	6.175615e-02	1.054912e-02	1.094822e-01	1.164972e-01	-7.015066e-03
211          	6.176304e-02	1.054785e-02	1.095211e-01	1.165236e-01	-7.002482e-03
212          	6.182584e-02	1.054459e-02	1.097243e-01	1.166880e-01	-6.963672e-03
213          	6.187998e-02	1.054327e-02	1.098865e-01	1.168232e-01	-6.936744e-03
214          	6.196510e-02	1.053957e-02	1.101079e-01	1.170191e-01	-6.911144e-03
215          	6.201957e-02	1.053098e-02	1.102541e-01	1.171466e-01	-6.892496e-03
216          	6.201883e-02	1.052899e-02	1.102649e-01	1.171513e-01	-6.886363e-03
217          	6.199327e-02	1.051884e-02	1.102595e-01	1.171230e-01	-6.863498e-03
218          	6.196502e-02	1.050818e-02	1.102592e-01	1.170946e-01	-6.835425e-03
219          	6.196067e-02	1.050493e-02	1.102768e-01	1.170991e-01	-6.822290e-03
220          	6.198959e-02	1.049591e-02	1.104207e-01	1.171999e-01	-6.779247e-03
221          	6.205193e-02	1.049561e-02	1.105964e-01	1.173501e-01	-6.753741e-03
222          	6.206768e-02	1.049690e-02	1.106366e-01	1.173860e-01	-6.749404e-03
223          	6.218901e-02	1.050128e-02	1.109026e-01	1.176403e-01	-6.737707e-03
224          	6.227121e-02	1.049664e-02	1.110999e-01	1.178211e-01	-6.721271e-03
225          	6.227264e-02	1.049471e-02	1.111166e-01	1.178310e-01	-6.714325e-03
226          	6.224716e-02	1.048091e-02	1.111242e-01	1.178093e-01	-6.685061e-03
227          	6.220577e-02	1.046432e-02	1.111102e-01	1.177609e-01	-6.650683e-03
228          	6.218827e-02	1.045516e-02	1.111280e-01	1.177523e-01	-6.624274e-03
229          	6.219750e-02	1.045666e-02	1.111545e-01	1.177747e-01	-6.620262e-03
230          	6.229355e-02	1.046758e-02	1.113625e-01	1.179748e-01	-6.612308e-03
231          	6.240132e-02	1.047552e-02	1.115992e-01	1.182009e-01	-6.601737e-03
232          	6.250524e-02	1.047437e-02	1.118401e-01	1.184253e-01	-6.585177e-03
233          	6.254253e-02	1.046219e-02	1.119560e-01	1.185206e-01	-6.564513e-03
234          	6.251929e-02	1.044995e-02	1.119461e-01	1.184923e-01	-6.546253e-03
235          	6.250888e-02	1.044777e-02	1.119386e-01	1.184782e-01	-6.539597e-03
236          	6.245476e-02	1.043522e-02	1.118859e-01	1.183977e-01	-6.511822e-03
237          	6.245020e-02	1.043059e-02	1.119236e-01	1.184120e-01	-6.488413e-03
238          	6.246403e-02	1.043216e-02	1.119605e-01	1.184443e-01	-6.483765e-03
239          	6.259205e-02	1.044164e-02	1.122371e-01	1.187106e-01	-6.473501e-03
240          	6.273171e-02	1.044784e-02	1.125376e-01	1.190005e-01	-6.462884e-03
241          	6.282971e-02	1.044435e-02	1.127608e-01	1.192101e-01	-6.449300e-03
242          	6.283814e-02	1.043412e-02	1.128084e-01	1.192423e-01	-6.433941e-03
243          	6.282973e-02	1.043193e-02	1.128038e-01	1.192316e-01	-6.427812e-03
244          	6.277003e-02	1.041712e-02	1.127367e-01	1.191384e-01	-6.401663e-03
245          	6.273145e-02	1.040667e-02	1.127081e-01	1.190855e-01	-6.377399e-03
246          	6.273622e-02	1.040695e-02	1.127285e-01	1.191005e-01	-6.371955e-03
247          	6.283292e-02	1.041352e-02	1.129463e-01	1.193061e-01	-6.359764e-03
248          	6.295845e-02	1.042092e-02	1.132149e-01	1.195659e-01	-6.351005e-03
249          	6.298873e-02	1.042189e-02	1.132841e-01	1.196308e-01	-6.346655e-03
250          	6.312195e-02	1.041679e-02	1.135815e-01	1.199127e-01	-6.331189e-03
251          	6.316658e-02	1.040861e-02	1.137037e-01	1.200184e-01	-6.314716e-03
252          	6.316473e-02	1.040742e-02	1.137105e-01	1.200200e-01	-6.309495e-03
253          	6.312963e-02	1.039653e-02	1.136850e-01	1.199721e-01	-6.287143e-03
254          	6.310679e-02	1.038973e-02	1.136805e-01	1.199470e-01	-6.266534e-03
255          	6.311453e-02	1.039047e-02	1.137058e-01	1.199674e-01	-6.261638e-03
256          	6.319668e-02	1.039637e-02	1.138863e-01	1.201398e-01	-6.253534e-03
257          	6.332066e-02	1.040169e-02	1.141489e-01	1.203951e-01	-6.246228e-03
258          	6.344637e-02	1.040007e-02	1.144182e-01	1.206554e-01	-6.237297e-03
259          	6.349985e-02	1.039138e-02	1.145484e-01	1.207740e-01	-6.225670e-03
260          	6.349857e-02	1.038974e-02	1.145557e-01	1.207764e-01	-6.220705e-03
261          	6.347482e-02	1.037888e-02	1.145461e-01	1.207478e-01	-6.201794e-03
262          	6.345962e-02	1.037017e-02	1.145556e-01	1.207374e-01	-6.181795e-03
263          	6.349413e-02	1.037092e-02	1.146594e-01	1.208238e-01	-6.164431e-03
264          	6.359953e-02	1.037823e-02	1.148917e-01	1.210454e-01	-6.153667e-03
265          	6.371200e-02	1.038469e-02	1.151240e-01	1.212740e-01	-6.149988e-03
266          	6.383144e-02	1.038516e-02	1.153660e-01	1.215144e-01	-6.148437e-03
267          	6.388833e-02	1.037600e-02	1.154887e-01	1.216327e-01	-6.143974e-03
268          	6.388057e-02	1.036634e-02	1.154882e-01	1.216247e-01	-6.136466e-03
269          	6.385841e-02	1.035867e-02	1.154632e-01	1.215900e-01	-6.126803e-03
270          	6.383925e-02	1.035218e-02	1.154525e-01	1.215655e-01	-6.113018e-03
271          	6.388504e-02	1.035483e-02	1.155674e-01	1.216687e-01	-6.101328e-03
272          	6.398841e-02	1.036224e-02	1.157894e-01	1.218831e-01	-6.093698e-03
273          	6.402012e-02	1.036395e-02	1.158595e-01	1.219499e-01	-6.090373e-03
274          	6.420050e-02	1.036574e-02	1.162378e-01	1.223194e-01	-6.081613e-03
275          	6.432566e-02	1.035757e-02	1.165126e-01	1.225819e-01	-6.069378e-03
276          	6.434634e-02	1.034537e-02	1.165805e-01	1.226366e-01	-6.056062e-03
277          	6.434213e-02	1.034382e-02	1.165794e-01	1.226318e-01	-6.052436e-03
278          	6.428535e-02	1.033137e-02	1.165016e-01	1.225362e-01	-6.034553e-03
279          	6.426951e-02	1.032607e-02	1.165046e-01	1.225218e-01	-6.017210e-03
280          	6.434658e-02	1.033187e-02	1.166782e-01	1.226857e-01	-6.007505e-03
281          	6.437843e-02	1.033425e-02	1.167457e-01	1.227513e-01	-6.005567e-03
282          	6.458390e-02	1.034353e-02	1.171669e-01	1.231674e-01	-6.000423e-03
283          	6.475030e-02	1.034182e-02	1.175212e-01	1.235109e-01	-5.989725e-03
284          	6.479867e-02	1.032846e-02	1.176504e-01	1.236239e-01	-5.973477e-03
285          	6.476048e-02	1.031422e-02	1.176061e-01	1.235635e-01	-5.957416e-03
286          	6.474703e-02	1.031122e-02	1.175901e-01	1.235421e-01	-5.951984e-03
287          	6.466884e-02	1.029835e-02	1.174834e-01	1.234105e-01	-5.927127e-03
288          	6.467105e-02	1.029628e-02	1.175279e-01	1.234350e-01	-5.907107e-03
289          	6.478307e-02	1.030448e-02	1.177706e-01	1.236684e-01	-5.897753e-03
290          	6.492945e-02	1.031235e-02	1.180711e-01	1.239650e-01	-5.893891e-03
291          	6.506002e-02	1.031276e-02	1.183454e-01	1.242327e-01	-5.887311e-03
292          	6.512299e-02	1.030196e-02	1.185028e-01	1.243744e-01	-5.871597e-03
293          	6.510841e-02	1.028543e-02	1.185179e-01	1.243674e-01	-5.849467e-03
294          	6.511327e-02	1.028332e-02	1.185516e-01	1.243891e-01	-5.837481e-03
295          	6.507844e-02	1.027179e-02	1.185416e-01	1.243492e-01	-5.807636e-03
296          	6.506375e-02	1.026281e-02	1.185686e-01	1.243480e-01	-5.779448e-03
297          	6.511325e-02	1.026319e-02	1.186968e-01	1.244617e-01	-5.764828e-03
298          	6.521848e-02	1.027053e-02	1.189098e-01	1.246734e-01	-5.763552e-03
299          	6.531998e-02	1.027526e-02	1.191162e-01	1.248781e-01	-5.761868e-03
300          	6.534210e-02	1.027475e-02	1.191680e-01	1.249261e-01	-5.758118e-03
301          	6.542322e-02	1.026083e-02	1.194069e-01	1.251267e-01	-5.719783e-03
302          	6.545005e-02	1.024556e-02	1.195303e-01	1.252152e-01	-5.684879e-03
303          	6.544988e-02	1.024388e-02	1.195394e-01	1.252196e-01	-5.680188e-03
304          	6.543148e-02	1.023462e-02	1.195410e-01	1.252020e-01	-5.660985e-03
305          	6.541977e-02	1.022492e-02	1.195610e-01	1.252003e-01	-5.639252e-03
306          	6.545080e-02	1.022301e-02	1.196551e-01	1.252783e-01	-5.623262e-03
307          	6.552574e-02	1.022856e-02	1.198243e-01	1.254379e-01	-5.613584e-03
308          	6.560656e-02	1.023315e-02	1.200063e-01	1.256097e-01	-5.603402e-03
309          	6.567576e-02	1.023230e-02	1.201755e-01	1.257635e-01	-5.588028e-03
310          	6.572130e-02	1.022230e-02	1.203134e-01	1.258780e-01	-5.564601e-03
311          	6.572622e-02	1.020666e-02	1.203739e-01	1.259132e-01	-5.539298e-03
312          	6.571299e-02	1.019502e-02	1.203870e-01	1.259065e-01	-5.519481e-03
313          	6.571337e-02	1.019396e-02	1.203970e-01	1.259119e-01	-5.514855e-03
314          	6.572186e-02	1.018691e-02	1.204707e-01	1.259572e-01	-5.486496e-03
315          	6.578884e-02	1.018717e-02	1.206722e-01	1.261250e-01	-5.452725e-03
316          	6.586913e-02	1.019126e-02	1.208725e-01	1.263054e-01	-5.432892e-03
317          	6.592989e-02	1.019377e-02	1.210132e-01	1.264365e-01	-5.423299e-03
318          	6.599135e-02	1.019022e-02	1.211586e-01	1.265707e-01	-5.412036e-03
319          	6.601573e-02	1.017838e-02	1.212403e-01	1.266359e-01	-5.395600e-03
320          	6.600596e-02	1.016518e-02	1.212584e-01	1.266352e-01	-5.376763e-03
321          	6.599381e-02	1.015829e-02	1.212648e-01	1.266262e-01	-5.361383e-03
322          	6.598285e-02	1.015027e-02	1.212907e-01	1.266282e-01	-5.337502e-03
323          	6.602024e-02	1.014978e-02	1.214187e-01	1.267296e-01	-5.310916e-03
324          	6.607718e-02	1.015383e-02	1.215621e-01	1.268582e-01	-5.296126e-03
325          	6.614721e-02	1.015736e-02	1.217260e-01	1.270102e-01	-5.284199e-03
326          	6.622299e-02	1.015586e-02	1.219093e-01	1.271776e-01	-5.268362e-03
327          	6.627351e-02	1.014647e-02	1.220539e-01	1.273005e-01	-5.246554e-03
328          	6.628475e-02	1.013403e-02	1.221220e-01	1.273457e-01	-5.223770e-03
329          	6.629075e-02	1.012958e-02	1.221700e-01	1.273758e-01	-5.205727e-03
330          	6.628565e-02	1.011992e-02	1.222174e-01	1.273943e-01	-5.176956e-03
331          	6.629622e-02	1.011360e-02	1.222970e-01	1.274447e-01	-5.147712e-03
332          	6.633611e-02	1.011533e-02	1.224101e-01	1.275412e-01	-5.131074e-03
333          	6.639566e-02	1.012061e-02	1.225444e-01	1.276679e-01	-5.123461e-03
334          	6.645164e-02	1.012305e-02	1.226714e-01	1.277874e-01	-5.115919e-03
335          	6.650888e-02	1.011834e-02	1.228178e-01	1.279178e-01	-5.099996e-03
336          	6.654173e-02	1.010172e-02	1.229359e-01	1.280097e-01	-5.073786e-03
337          	6.653951e-02	1.009395e-02	1.229684e-01	1.280237e-01	-5.055302e-03
338          	6.652853e-02	1.008695e-02	1.229908e-01	1.280239e-01	-5.033125e-03
339          	6.653001e-02	1.008414e-02	1.230496e-01	1.280548e-01	-5.005198e-03
340          	6.656657e-02	1.008714e-02	1.231550e-01	1.281441e-01	-4.989057e-03
341          	6.663106e-02	1.009133e-02	1.233089e-01	1.282855e-01	-4.976601e-03
342          	6.670492e-02	1.009191e-02	1.234849e-01	1.284474e-01	-4.962486e-03
343          	6.677042e-02	1.008537e-02	1.236561e-01	1.285985e-01	-4.942381e-03
344          	6.680005e-02	1.007331e-02	1.237618e-01	1.286810e-01	-4.919130e-03
345          	6.681065e-02	1.006825e-02	1.238227e-01	1.287220e-01	-4.899293e-03
346          	6.680712e-02	1.005909e-02	1.238697e-01	1.287420e-01	-4.872265e-03
347          	6.680615e-02	1.005200e-02	1.239230e-01	1.287676e-01	-4.844661e-03
348          	6.683862e-02	1.005339e-02	1.240310e-01	1.288541e-01	-4.823128e-03
349          	6.687731e-02	1.005793e-02	1.241203e-01	1.289375e-01	-4.817141e-03
350          	6.692592e-02	1.006112e-02	1.242277e-01	1.290398e-01	-4.812059e-03
351          	6.700784e-02	1.005698e-02	1.244204e-01	1.292180e-01	-4.797654e-03
352          	6.703472e-02	1.004788e-02	1.245167e-01	1.292931e-01	-4.776361e-03
353          	6.703649e-02	1.003772e-02	1.245663e-01	1.293197e-01	-4.753317e-03
354          	6.703083e-02	1.002977e-02	1.246004e-01	1.293310e-01	-4.730611e-03
355          	6.703245e-02	1.002435e-02	1.246528e-01	1.293588e-01	-4.706049e-03
356          	6.707324e-02	1.002613e-02	1.247838e-01	1.294651e-01	-4.681337e-03
357          	6.713683e-02	1.003117e-02	1.249430e-01	1.296083e-01	-4.665325e-03
358          	6.719531e-02	1.003376e-02	1.250828e-01	1.297367e-01	-4.653931e-03
359          	6.727886e-02	1.002898e-02	1.252825e-01	1.299201e-01	-4.637619e-03
360          	6.729446e-02	1.001982e-02	1.253455e-01	1.299672e-01	-4.621702e-03
361          	6.728245e-02	1.001068e-02	1.253538e-01	1.299593e-01	-4.605547e-03
362          	6.726536e-02	1.000294e-02	1.253567e-01	1.299437e-01	-4.586989e-03
363          	6.725576e-02	9.997602e-03	1.253886e-01	1.299501e-01	-4.561455e-03
364          	6.730582e-02	1.000270e-02	1.255235e-01	1.300676e-01	-4.544049e-03
365          	6.736322e-02	1.000716e-02	1.256614e-01	1.301939e-01	-4.532536e-03
366          	6.743289e-02	1.000852e-02	1.258265e-01	1.303461e-01	-4.519647e-03
367          	6.751556e-02	9.999700e-03	1.260329e-01	1.305320e-01	-4.499118e-03
368          	6.752962e-02	9.989820e-03	1.261013e-01	1.305803e-01	-4.478969e-03
369          	6.751619e-02	9.981466e-03	1.261101e-01	1.305713e-01	-4.461129e-03