# Force coefficients
# liftDir    : (0.000000e+00 1.000000e+00 0.000000e+00)
# dragDir    : (1.000000e+00 0.000000e+00 0.000000e+00)
# pitchAxis  : (0.000000e+00 0.000000e+00 1.000000e+00)
# magUInf    : 5.939300e+01
# lRef       : 1.000000e+00
# Aref       : 1.000000e+00
# CofR       : (0.000000e+00 0.000000e+00 0.000000e+00)
# Time       	Cm           	Cd           	Cl           	Cl(f)        	Cl(r)        
1            	5.384764e+00	5.245768e+00	4.908230e+00	7.838879e+00	-2.930649e+00
2            	4.493785e+00	4.213928e+00	4.269828e+00	6.628698e+00	-2.358871e+00
3            	-5.349056e-01	-5.328835e-01	-3.551208e-01	-7.124660e-01	3.573452e-01
4            	-3.389927e+00	-3.142127e+00	-3.114994e+00	-4.947424e+00	1.832430e+00
5            	-2.680918e+00	-2.379893e+00	-2.582065e+00	-3.971951e+00	1.389886e+00
6            	5.185021e-01	5.732711e-01	4.303488e-01	7.336765e-01	-3.033277e-01
7            	2.230785e+00	2.053820e+00	2.145739e+00	3.303655e+00	-1.157916e+00
8            	1.627599e+00	1.392454e+00	1.691471e+00	2.473334e+00	-7.818632e-01
9            	-2.835320e-01	-3.470524e-01	-1.376363e-01	-3.523501e-01	2.147138e-01
10           	-1.322227e+00	-1.211043e+00	-1.217531e+00	-1.930992e+00	7.134611e-01
11           	-9.099969e-01	-7.534110e-01	-9.183386e-01	-1.369166e+00	4.508276e-01
12           	2.739295e-01	3.029838e-01	2.304429e-01	3.891510e-01	-1.587081e-01
13           	8.793864e-01	7.815876e-01	8.876568e-01	1.323215e+00	-4.355581e-01
14           	6.059603e-01	4.726433e-01	6.927911e-01	9.523558e-01	-2.595648e-01
15           	-1.173690e-01	-1.676268e-01	-1.748891e-02	-1.261134e-01	1.086245e-01
16           	-4.115106e-01	-3.876959e-01	-3.521604e-01	-5.875908e-01	2.354304e-01
17           	-2.872554e-01	-2.254475e-01	-2.929877e-01	-4.337493e-01	1.407616e-01
18           	8.332367e-02	9.996890e-02	7.054939e-02	1.185984e-01	-4.804898e-02
19           	2.850182e-01	2.422014e-01	3.082162e-01	4.391263e-01	-1.309101e-01
20           	2.589398e-01	1.767488e-01	3.329353e-01	4.254074e-01	-9.247214e-02
21           	6.285757e-02	4.426072e-03	1.421709e-01	1.339430e-01	8.227856e-03
22           	-6.105276e-02	-7.710688e-02	-1.201550e-02	-6.706051e-02	5.504501e-02
23           	-6.686402e-02	-5.533935e-02	-5.068265e-02	-9.220535e-02	4.152269e-02
24           	1.113566e-02	2.373718e-02	6.297286e-03	1.428430e-02	-7.987016e-03
25           	9.832779e-02	7.567750e-02	1.187252e-01	1.576904e-01	-3.896519e-02
26           	1.153541e-01	6.721212e-02	1.637383e-01	1.972232e-01	-3.348489e-02
27           	8.873080e-02	2.955244e-02	1.607693e-01	1.691155e-01	-8.346140e-03
28           	4.298367e-02	3.606010e-03	1.011641e-01	9.356570e-02	7.598369e-03
29           	1.818317e-02	5.653795e-03	4.533648e-02	4.085141e-02	4.485071e-03
30           	2.440829e-02	2.323554e-02	3.053393e-02	3.967525e-02	-9.141325e-03
31           	5.022492e-02	3.575106e-02	6.462072e-02	8.253527e-02	-1.791456e-02
32           	7.156254e-02	3.494745e-02	1.101041e-01	1.266146e-01	-1.651049e-02
33           	7.831065e-02	2.638730e-02	1.390088e-01	1.478151e-01	-8.806232e-03
34           	6.666419e-02	2.005809e-02	1.249179e-01	1.291232e-01	-4.205216e-03
35           	5.207383e-02	1.999339e-02	9.388819e-02	9.901792e-02	-5.129732e-03
36           	4.402054e-02	2.360540e-02	6.908938e-02	7.856523e-02	-9.475847e-03
37           	4.806196e-02	2.669337e-02	7.047830e-02	8.330111e-02	-1.282281e-02
38           	5.741997e-02	2.694851e-02	8.870154e-02	1.017707e-01	-1.306920e-02
39           	6.639182e-02	2.564873e-02	1.103857e-01	1.215847e-01	-1.119897e-02
40           	6.776685e-02	2.427862e-02	1.166607e-01	1.260972e-01	-9.436488e-03
41           	6.399429e-02	2.400787e-02	1.094459e-01	1.187172e-01	-9.271329e-03
42           	5.824252e-02	2.415991e-02	9.597429e-02	1.062297e-01	-1.025538e-02
43           	5.625611e-02	2.438217e-02	8.964395e-02	1.010781e-01	-1.143413e-02
44           	5.858014e-02	2.435492e-02	9.339236e-02	1.052763e-01	-1.188396e-02
45           	6.360466e-02	2.437528e-02	1.037371e-01	1.154732e-01	-1.173611e-02
46           	6.746698e-02	2.446741e-02	1.123346e-01	1.236343e-01	-1.129971e-02
47           	6.763073e-02	2.449438e-02	1.128513e-01	1.240564e-01	-1.120509e-02
48           	6.652806e-02	2.443118e-02	1.106065e-01	1.218313e-01	-1.122480e-02
49           	6.485003e-02	2.417355e-02	1.069800e-01	1.183400e-01	-1.136001e-02
50           	6.390401e-02	2.387130e-02	1.047406e-01	1.162743e-01	-1.153372e-02
51           	6.409285e-02	2.365936e-02	1.047893e-01	1.164875e-01	-1.169819e-02
52           	6.546148e-02	2.362348e-02	1.072875e-01	1.191052e-01	-1.181775e-02
53           	6.775760e-02	2.376600e-02	1.118362e-01	1.236757e-01	-1.183951e-02
54           	6.974109e-02	2.392212e-02	1.160355e-01	1.277588e-01	-1.172336e-02
55           	7.048978e-02	2.393682e-02	1.178371e-01	1.294084e-01	-1.157121e-02
56           	7.027368e-02	2.381275e-02	1.176750e-01	1.291112e-01	-1.143617e-02
57           	6.958732e-02	2.359949e-02	1.164674e-01	1.278210e-01	-1.135363e-02
58           	6.893065e-02	2.337168e-02	1.152278e-01	1.265445e-01	-1.131676e-02
59           	6.880327e-02	2.320107e-02	1.149751e-01	1.262908e-01	-1.131570e-02
60           	6.932294e-02	2.311746e-02	1.160450e-01	1.273454e-01	-1.130043e-02
61           	6.995534e-02	2.306271e-02	1.174029e-01	1.286568e-01	-1.125390e-02
62           	7.145864e-02	2.307719e-02	1.206932e-01	1.318052e-01	-1.111204e-02
63           	7.253907e-02	2.309007e-02	1.231139e-01	1.340960e-01	-1.098211e-02
64           	7.293062e-02	2.307158e-02	1.240651e-01	1.349632e-01	-1.089806e-02
65           	7.292570e-02	2.301730e-02	1.241756e-01	1.350135e-01	-1.083790e-02
66           	7.262791e-02	2.291843e-02	1.237294e-01	1.344926e-01	-1.076321e-02
67           	7.233037e-02	2.278723e-02	1.232783e-01	1.339695e-01	-1.069123e-02
68           	7.238231e-02	2.266906e-02	1.235161e-01	1.341403e-01	-1.062427e-02
69           	7.290017e-02	2.259569e-02	1.246523e-01	1.352263e-01	-1.057401e-02
70           	7.312900e-02	2.258220e-02	1.251150e-01	1.356865e-01	-1.057152e-02
71           	7.426440e-02	2.255165e-02	1.276119e-01	1.380703e-01	-1.045845e-02
72           	7.492770e-02	2.248752e-02	1.291602e-01	1.395078e-01	-1.034759e-02
73           	7.580260e-02	2.242501e-02	1.312277e-01	1.414164e-01	-1.018877e-02
74           	7.591907e-02	2.240681e-02	1.314988e-01	1.416685e-01	-1.016969e-02
75           	7.608069e-02	2.230946e-02	1.321189e-01	1.421401e-01	-1.002123e-02
76           	7.609464e-02	2.227792e-02	1.322183e-01	1.422038e-01	-9.985492e-03
77           	7.600976e-02	2.214088e-02	1.324359e-01	1.422277e-01	-9.791810e-03
78           	7.613167e-02	2.204911e-02	1.329348e-01	1.425990e-01	-9.664291e-03
79           	7.625342e-02	2.204100e-02	1.331708e-01	1.428388e-01	-9.668017e-03
80           	7.642548e-02	2.202706e-02	1.335523e-01	1.432016e-01	-9.649322e-03
81           	7.738768e-02	2.195946e-02	1.358117e-01	1.452936e-01	-9.481813e-03
82           	7.763281e-02	2.193034e-02	1.364103e-01	1.458379e-01	-9.427680e-03
83           	7.812554e-02	2.180842e-02	1.378095e-01	1.470303e-01	-9.220768e-03
84           	7.872169e-02	2.166065e-02	1.396134e-01	1.485284e-01	-8.914976e-03
85           	7.882200e-02	2.163814e-02	1.398866e-01	1.487653e-01	-8.878696e-03
86           	7.885488e-02	2.161094e-02	1.400584e-01	1.488841e-01	-8.825686e-03
87           	7.878406e-02	2.149547e-02	1.404591e-01	1.490136e-01	-8.554530e-03
88           	7.880551e-02	2.147091e-02	1.406195e-01	1.491152e-01	-8.495781e-03
89           	7.891034e-02	2.138777e-02	1.412774e-01	1.495491e-01	-8.271625e-03
90           	7.903580e-02	2.137513e-02	1.415797e-01	1.498257e-01	-8.245933e-03
91           	7.957492e-02	2.131465e-02	1.429299e-01	1.510399e-01	-8.109983e-03
92           	7.974561e-02	2.130024e-02	1.433167e-01	1.514040e-01	-8.087268e-03
93           	7.995045e-02	2.127298e-02	1.438203e-01	1.518606e-01	-8.040302e-03
94           	8.045595e-02	2.114337e-02	1.452898e-01	1.531009e-01	-7.811036e-03
95           	8.119411e-02	2.098992e-02	1.474111e-01	1.548996e-01	-7.488574e-03
96           	8.133659e-02	2.097124e-02	1.477863e-01	1.552298e-01	-7.443425e-03
97           	8.142957e-02	2.095521e-02	1.480580e-01	1.554586e-01	-7.400571e-03
98           	8.160880e-02	2.087931e-02	1.488605e-01	1.560391e-01	-7.178541e-03
99           	8.166729e-02	2.086366e-02	1.490802e-01	1.562074e-01	-7.127191e-03
100          	8.180423e-02	2.079313e-02	1.497935e-01	1.567010e-01	-6.907485e-03
101          	8.188236e-02	2.077741e-02	1.500297e-01	1.568972e-01	-6.867532e-03
102          	8.198486e-02	2.075048e-02	1.503511e-01	1.571604e-01	-6.809311e-03
103          	8.240730e-02	2.062236e-02	1.517146e-01	1.582646e-01	-6.550022e-03
104          	8.257363e-02	2.058751e-02	1.521904e-01	1.586688e-01	-6.478430e-03
105          	8.294169e-02	2.047150e-02	1.533403e-01	1.596118e-01	-6.271540e-03
106          	8.314265e-02	2.043159e-02	1.539268e-01	1.601061e-01	-6.179231e-03
107          	8.363088e-02	2.030201e-02	1.555213e-01	1.613915e-01	-5.870226e-03
108          	8.372552e-02	2.028560e-02	1.558214e-01	1.616362e-01	-5.814816e-03
109          	8.380503e-02	2.026207e-02	1.561182e-01	1.618642e-01	-5.745913e-03
110          	8.387100e-02	2.023895e-02	1.564277e-01	1.620849e-01	-5.657126e-03
111          	8.403494e-02	2.014565e-02	1.573992e-01	1.627345e-01	-5.335338e-03
112          	8.412770e-02	2.011735e-02	1.577778e-01	1.630166e-01	-5.238796e-03
113          	8.423912e-02	2.008004e-02	1.582002e-01	1.633392e-01	-5.139017e-03
114          	8.453829e-02	1.994188e-02	1.594324e-01	1.642545e-01	-4.822096e-03
115          	8.466718e-02	1.990208e-02	1.598362e-01	1.645853e-01	-4.749107e-03
116          	8.478454e-02	1.987678e-02	1.601875e-01	1.648783e-01	-4.690807e-03
117          	8.516305e-02	1.977924e-02	1.613587e-01	1.658424e-01	-4.483721e-03
118          	8.529674e-02	1.975520e-02	1.617510e-01	1.661722e-01	-4.421258e-03
119          	8.543768e-02	1.972436e-02	1.621929e-01	1.665341e-01	-4.341234e-03
120          	8.575815e-02	1.960661e-02	1.633537e-01	1.674350e-01	-4.081290e-03
121          	8.590826e-02	1.956423e-02	1.638789e-01	1.678477e-01	-3.968829e-03
122          	8.604006e-02	1.951877e-02	1.644005e-01	1.682403e-01	-3.839834e-03
123          	8.633329e-02	1.938309e-02	1.657398e-01	1.692032e-01	-3.463378e-03
124          	8.640511e-02	1.936371e-02	1.660283e-01	1.694193e-01	-3.390945e-03
125          	8.645848e-02	1.934895e-02	1.662577e-01	1.695873e-01	-3.329654e-03
126          	8.651086e-02	1.932724e-02	1.665187e-01	1.697702e-01	-3.251524e-03
127          	8.657965e-02	1.928941e-02	1.668809e-01	1.700201e-01	-3.139215e-03
128          	8.678158e-02	1.914217e-02	1.679503e-01	1.707567e-01	-2.806442e-03
129          	8.692084e-02	1.907706e-02	1.685057e-01	1.711737e-01	-2.667989e-03
130          	8.706646e-02	1.900980e-02	1.690676e-01	1.716002e-01	-2.532678e-03
131          	8.739881e-02	1.883860e-02	1.704389e-01	1.726183e-01	-2.179348e-03
132          	8.747379e-02	1.882142e-02	1.707002e-01	1.728239e-01	-2.123702e-03
133          	8.752846e-02	1.881522e-02	1.709042e-01	1.729806e-01	-2.076336e-03
134          	8.758557e-02	1.880771e-02	1.711559e-01	1.731635e-01	-2.007627e-03
135          	8.765686e-02	1.879021e-02	1.715093e-01	1.734115e-01	-1.902193e-03
136          	8.782055e-02	1.871096e-02	1.724801e-01	1.740606e-01	-1.580476e-03
137          	8.791366e-02	1.866999e-02	1.728951e-01	1.743612e-01	-1.466128e-03
138          	8.799901e-02	1.861417e-02	1.732995e-01	1.746488e-01	-1.349262e-03
139          	8.815251e-02	1.845860e-02	1.741440e-01	1.752245e-01	-1.080492e-03
140          	8.824001e-02	1.840262e-02	1.745438e-01	1.755119e-01	-9.681235e-04
141          	8.832272e-02	1.835654e-02	1.749251e-01	1.757853e-01	-8.601592e-04
142          	8.841317e-02	1.830848e-02	1.753578e-01	1.760920e-01	-7.342898e-04
143          	8.865919e-02	1.816318e-02	1.765235e-01	1.769209e-01	-3.974603e-04
144          	8.874242e-02	1.813327e-02	1.768487e-01	1.771668e-01	-3.180521e-04
145          	8.880595e-02	1.811110e-02	1.770979e-01	1.773549e-01	-2.570086e-04
146          	8.886022e-02	1.808648e-02	1.773534e-01	1.775369e-01	-1.835040e-04
147          	8.899020e-02	1.799610e-02	1.780954e-01	1.780379e-01	5.751804e-05
148          	8.905371e-02	1.796591e-02	1.784405e-01	1.782739e-01	1.665155e-04
149          	8.911724e-02	1.793149e-02	1.788202e-01	1.785273e-01	2.928399e-04
150          	8.925735e-02	1.781125e-02	1.798231e-01	1.791689e-01	6.541883e-04
151          	8.930207e-02	1.778502e-02	1.800718e-01	1.793379e-01	7.338047e-04
152          	8.933493e-02	1.775994e-02	1.802706e-01	1.794702e-01	8.003435e-04
153          	8.936539e-02	1.772778e-02	1.804849e-01	1.796078e-01	8.770528e-04
154          	8.944908e-02	1.760788e-02	1.811423e-01	1.800203e-01	1.122095e-03
155          	8.950143e-02	1.756535e-02	1.814453e-01	1.802241e-01	1.221204e-03
156          	8.956533e-02	1.751750e-02	1.818114e-01	1.804710e-01	1.340381e-03
157          	8.972110e-02	1.737845e-02	1.827813e-01	1.811117e-01	1.669534e-03
158          	8.977087e-02	1.735552e-02	1.830278e-01	1.812848e-01	1.743031e-03
159          	8.980788e-02	1.733963e-02	1.832221e-01	1.814190e-01	1.803192e-03
160          	8.984153e-02	1.732097e-02	1.834367e-01	1.815599e-01	1.876847e-03
161          	8.992212e-02	1.725093e-02	1.840654e-01	1.819548e-01	2.110590e-03
162          	8.996131e-02	1.722580e-02	1.843257e-01	1.821242e-01	2.201555e-03
163          	9.000050e-02	1.719182e-02	1.846153e-01	1.823082e-01	2.307162e-03
164          	9.007681e-02	1.708232e-02	1.853517e-01	1.827527e-01	2.599062e-03
165          	9.011035e-02	1.705177e-02	1.855839e-01	1.829023e-01	2.681607e-03
166          	9.013897e-02	1.702224e-02	1.857965e-01	1.830372e-01	2.759266e-03
167          	9.021940e-02	1.692592e-02	1.863547e-01	1.833968e-01	2.957963e-03
168          	9.025783e-02	1.689526e-02	1.865939e-01	1.835548e-01	3.039119e-03
169          	9.029829e-02	1.686236e-02	1.868516e-01	1.837241e-01	3.127515e-03
170          	9.040383e-02	1.675573e-02	1.875843e-01	1.841960e-01	3.388304e-03
171          	9.043506e-02	1.673231e-02	1.877934e-01	1.843317e-01	3.461628e-03
172          	9.045525e-02	1.671096e-02	1.879859e-01	1.844482e-01	3.537702e-03
173          	9.047821e-02	1.664660e-02	1.884727e-01	1.847146e-01	3.758152e-03
174          	9.048482e-02	1.663280e-02	1.886153e-01	1.847925e-01	3.822850e-03
175          	9.048729e-02	1.661567e-02	1.887666e-01	1.848706e-01	3.896019e-03
176          	9.048256e-02	1.654504e-02	1.892123e-01	1.850887e-01	4.123603e-03
177          	9.049122e-02	1.651854e-02	1.893869e-01	1.851847e-01	4.202206e-03
178          	9.051238e-02	1.642361e-02	1.898652e-01	1.854450e-01	4.420199e-03
179          	9.052929e-02	1.639897e-02	1.900086e-01	1.855336e-01	4.475028e-03
180          	9.054724e-02	1.637226e-02	1.901643e-01	1.856294e-01	4.534933e-03
181          	9.060176e-02	1.629070e-02	1.905844e-01	1.858940e-01	4.690454e-03
182          	9.062653e-02	1.626258e-02	1.907874e-01	1.860202e-01	4.767166e-03
183          	9.064909e-02	1.623428e-02	1.910055e-01	1.861518e-01	4.853656e-03
184          	9.070215e-02	1.614937e-02	1.916047e-01	1.865045e-01	5.100214e-03
185          	9.071214e-02	1.613432e-02	1.917483e-01	1.865863e-01	5.162019e-03
186          	9.071226e-02	1.612233e-02	1.918656e-01	1.866451e-01	5.220541e-03
187          	9.070429e-02	1.610809e-02	1.919933e-01	1.867009e-01	5.292359e-03
188          	9.066998e-02	1.605579e-02	1.923703e-01	1.868551e-01	5.515185e-03
189          	9.066446e-02	1.603790e-02	1.925034e-01	1.869161e-01	5.587225e-03
190          	9.066065e-02	1.601252e-02	1.926585e-01	1.869899e-01	5.668616e-03
191          	9.067203e-02	1.592491e-02	1.930770e-01	1.872106e-01	5.866483e-03
192          	9.070445e-02	1.582609e-02	1.935464e-01	1.874777e-01	6.068763e-03
193          	9.071176e-02	1.581367e-02	1.936168e-01	1.875202e-01	6.096634e-03
194          	9.071316e-02	1.580564e-02	1.936649e-01	1.875456e-01	6.119291e-03
195          	9.071022e-02	1.577873e-02	1.938001e-01	1.876103e-01	6.189822e-03
196          	9.070175e-02	1.577294e-02	1.938524e-01	1.876280e-01	6.224469e-03
197          	9.068678e-02	1.576325e-02	1.939342e-01	1.876539e-01	6.280318e-03
198          	9.063748e-02	1.572178e-02	1.942273e-01	1.877511e-01	6.476149e-03
199          	9.062149e-02	1.570474e-02	1.943435e-01	1.877932e-01	6.550247e-03
200          	9.060413e-02	1.568108e-02	1.944773e-01	1.878428e-01	6.634520e-03
201          	9.058852e-02	1.564907e-02	1.946445e-01	1.879108e-01	6.733754e-03
202          	9.057458e-02	1.555817e-02	1.951160e-01	1.881326e-01	6.983408e-03
203          	9.057910e-02	1.553895e-02	1.952316e-01	1.881949e-01	7.036723e-03
204          	9.058817e-02	1.552374e-02	1.953347e-01	1.882555e-01	7.079179e-03
205          	9.060358e-02	1.550699e-02	1.954604e-01	1.883338e-01	7.126610e-03
206          	9.067550e-02	1.545677e-02	1.958668e-01	1.886089e-01	7.257904e-03
207          	9.068825e-02	1.544296e-02	1.959773e-01	1.886769e-01	7.300372e-03
208          	9.068539e-02	1.542986e-02	1.960623e-01	1.887166e-01	7.345777e-03
209          	9.066804e-02	1.539097e-02	1.962423e-01	1.887892e-01	7.453131e-03
210          	9.064277e-02	1.537773e-02	1.963045e-01	1.887950e-01	7.509465e-03
211          	9.060943e-02	1.536299e-02	1.963679e-01	1.887934e-01	7.574531e-03
212          	9.056990e-02	1.534367e-02	1.964538e-01	1.887968e-01	7.656977e-03
213          	9.047805e-02	1.528499e-02	1.966879e-01	1.888220e-01	7.865894e-03
214          	9.045863e-02	1.527468e-02	1.967372e-01	1.888272e-01	7.909950e-03
215          	9.044650e-02	1.526731e-02	1.967743e-01	1.888337e-01	7.940671e-03
216          	9.044036e-02	1.525869e-02	1.968308e-01	1.888558e-01	7.975040e-03
217          	9.044393e-02	1.524613e-02	1.969322e-01	1.889100e-01	8.022191e-03
218          	9.050335e-02	1.520618e-02	1.973243e-01	1.891655e-01	8.158786e-03
219          	9.052042e-02	1.519350e-02	1.974462e-01	1.892435e-01	8.202707e-03
220          	9.053133e-02	1.518091e-02	1.975525e-01	1.893076e-01	8.244930e-03
221          	9.053589e-02	1.516586e-02	1.976632e-01	1.893675e-01	8.295722e-03
222          	9.053272e-02	1.514755e-02	1.977861e-01	1.894258e-01	8.360323e-03
223          	9.053024e-02	1.510162e-02	1.980446e-01	1.895525e-01	8.492068e-03
224          	9.051902e-02	1.508812e-02	1.981276e-01	1.895828e-01	8.544753e-03
225          	9.050524e-02	1.507846e-02	1.981842e-01	1.895973e-01	8.586864e-03
226          	9.048990e-02	1.506900e-02	1.982448e-01	1.896123e-01	8.632511e-03
227          	9.047630e-02	1.505953e-02	1.983180e-01	1.896353e-01	8.682715e-03
228          	9.046778e-02	1.504986e-02	1.984152e-01	1.896754e-01	8.739825e-03
229          	9.047749e-02	1.502987e-02	1.986678e-01	1.898114e-01	8.856432e-03
230          	9.047941e-02	1.502692e-02	1.987189e-01	1.898389e-01	8.880054e-03
231          	9.048053e-02	1.502432e-02	1.987554e-01	1.898583e-01	8.897192e-03
232          	9.048319e-02	1.501903e-02	1.988082e-01	1.898873e-01	8.920890e-03
233          	9.049154e-02	1.500921e-02	1.988967e-01	1.899399e-01	8.956797e-03
234          	9.055514e-02	1.497540e-02	1.992429e-01	1.901766e-01	9.066290e-03
235          	9.056913e-02	1.496557e-02	1.993357e-01	1.902370e-01	9.098726e-03
236          	9.058060e-02	1.495596e-02	1.994257e-01	1.902934e-01	9.132237e-03
237          	9.059306e-02	1.494558e-02	1.995310e-01	1.903586e-01	9.172431e-03
238          	9.060896e-02	1.493444e-02	1.996634e-01	1.904407e-01	9.222752e-03
239          	9.066447e-02	1.490884e-02	1.999662e-01	1.906476e-01	9.318645e-03
240          	9.068277e-02	1.490458e-02	2.000678e-01	1.907167e-01	9.351131e-03
241          	9.069734e-02	1.490282e-02	2.001463e-01	1.907705e-01	9.375814e-03
242          	9.071260e-02	1.490146e-02	2.002297e-01	1.908275e-01	9.402254e-03
243          	9.073239e-02	1.489985e-02	2.003296e-01	1.908972e-01	9.432392e-03
244          	9.075870e-02	1.489704e-02	2.004535e-01	1.909854e-01	9.468032e-03
245          	9.085865e-02	1.488855e-02	2.008018e-01	1.912595e-01	9.542246e-03
246          	9.087336e-02	1.488596e-02	2.008627e-01	1.913047e-01	9.557988e-03
247          	9.088052e-02	1.488193e-02	2.009037e-01	1.913324e-01	9.571321e-03
248          	9.088566e-02	1.487418e-02	2.009548e-01	1.913630e-01	9.591733e-03
249          	9.089416e-02	1.486147e-02	2.010331e-01	1.914107e-01	9.622407e-03
250          	9.091311e-02	1.484436e-02	2.011590e-01	1.914926e-01	9.666387e-03
251          	9.102906e-02	1.480605e-02	2.015905e-01	1.918243e-01	9.766213e-03
252          	9.106271e-02	1.480083e-02	2.017022e-01	1.919138e-01	9.788388e-03
253          	9.109395e-02	1.480041e-02	2.017913e-01	1.919896e-01	9.801676e-03
254          	9.113127e-02	1.480230e-02	2.018946e-01	1.920785e-01	9.816016e-03
255          	9.123327e-02	1.480075e-02	2.021651e-01	1.923158e-01	9.849282e-03
256          	9.127548e-02	1.480231e-02	2.022863e-01	1.924186e-01	9.867656e-03
257          	9.131656e-02	1.480198e-02	2.024118e-01	1.925224e-01	9.889322e-03
258          	9.136425e-02	1.479860e-02	2.025671e-01	1.926478e-01	9.919297e-03
259          	9.153086e-02	1.478546e-02	2.030336e-01	1.930477e-01	9.985963e-03
260          	9.155535e-02	1.478279e-02	2.031101e-01	1.931104e-01	9.999686e-03
261          	9.156740e-02	1.477963e-02	2.031528e-01	1.931438e-01	1.000900e-02
262          	9.157627e-02	1.477366e-02	2.031969e-01	1.931747e-01	1.002220e-02
263          	9.158859e-02	1.476347e-02	2.032599e-01	1.932185e-01	1.004136e-02
264          	9.167532e-02	1.472961e-02	2.035496e-01	1.934501e-01	1.009948e-02
265          	9.170504e-02	1.472224e-02	2.036410e-01	1.935256e-01	1.011547e-02
266          	9.174403e-02	1.471687e-02	2.037520e-01	1.936201e-01	1.013199e-02
267          	9.187015e-02	1.470142e-02	2.040828e-01	1.939116e-01	1.017127e-02
268          	9.193803e-02	1.469924e-02	2.042557e-01	1.940659e-01	1.018983e-02
269          	9.200980e-02	1.469821e-02	2.044357e-01	1.942277e-01	1.020807e-02
270          	9.225740e-02	1.469768e-02	2.050155e-01	1.947651e-01	1.025035e-02
271          	9.228363e-02	1.469795e-02	2.050818e-01	1.948245e-01	1.025727e-02
272          	9.229793e-02	1.469752e-02	2.051258e-01	1.948608e-01	1.026499e-02
273          	9.231013e-02	1.469593e-02	2.051710e-01	1.948956e-01	1.027535e-02
274          	9.237791e-02	1.468757e-02	2.053753e-01	1.950656e-01	1.030973e-02
275          	9.240428e-02	1.468310e-02	2.054520e-01	1.951303e-01	1.032171e-02
276          	9.244922e-02	1.467462e-02	2.055748e-01	1.952366e-01	1.033818e-02
277          	9.264472e-02	1.464359e-02	2.060522e-01	1.956708e-01	1.038139e-02
278          	9.268151e-02	1.463780e-02	2.061486e-01	1.957558e-01	1.039278e-02
279          	9.271617e-02	1.463257e-02	2.062400e-01	1.958362e-01	1.040385e-02
280          	9.276522e-02	1.462551e-02	2.063725e-01	1.959515e-01	1.042103e-02
281          	9.291344e-02	1.460237e-02	2.067572e-01	1.962920e-01	1.046514e-02
282          	9.300993e-02	1.459659e-02	2.069917e-01	1.965058e-01	1.048591e-02
283          	9.329560e-02	1.459201e-02	2.076363e-01	1.971138e-01	1.052257e-02
284          	9.332225e-02	1.459430e-02	2.076986e-01	1.971715e-01	1.052704e-02
285          	9.333487e-02	1.459705e-02	2.077287e-01	1.971992e-01	1.052947e-02
286          	9.334537e-02	1.459943e-02	2.077611e-01	1.972259e-01	1.053517e-02
287          	9.339778e-02	1.459943e-02	2.079040e-01	1.973498e-01	1.055424e-02
288          	9.341813e-02	1.459690e-02	2.079641e-01	1.974002e-01	1.056394e-02
289          	9.345817e-02	1.458949e-02	2.080697e-01	1.974930e-01	1.057668e-02
290          	9.367585e-02	1.455412e-02	2.085958e-01	1.979738e-01	1.062206e-02
291          	9.373352e-02	1.454747e-02	2.087318e-01	1.980994e-01	1.063239e-02
292          	9.380444e-02	1.454231e-02	2.088968e-01	1.982528e-01	1.064397e-02
293          	9.390215e-02	1.453879e-02	2.091199e-01	1.984621e-01	1.065781e-02
294          	9.411044e-02	1.452738e-02	2.096116e-01	1.989163e-01	1.069538e-02
295          	9.422132e-02	1.452766e-02	2.098673e-01	1.991550e-01	1.071234e-02
296          	9.446144e-02	1.452867e-02	2.104204e-01	1.996716e-01	1.074874e-02
297          	9.447648e-02	1.453094e-02	2.104570e-01	1.997050e-01	1.075205e-02
298          	9.448230e-02	1.453310e-02	2.104761e-01	1.997204e-01	1.075577e-02
299          	9.448830e-02	1.453476e-02	2.104968e-01	1.997367e-01	1.076010e-02
300          	9.453224e-02	1.452446e-02	2.106237e-01	1.998441e-01	1.077963e-02
301          	9.455685e-02	1.452172e-02	2.106874e-01	1.999005e-01	1.078682e-02
302          	9.461310e-02	1.451543e-02	2.108221e-01	2.000241e-01	1.079794e-02
303          	9.490310e-02	1.448954e-02	2.114757e-01	2.006409e-01	1.083474e-02
304          	9.497208e-02	1.448753e-02	2.116384e-01	2.007913e-01	1.084714e-02
305          	9.505996e-02	1.448883e-02	2.118414e-01	2.009807e-01	1.086074e-02
306          	9.523998e-02	1.448663e-02	2.122718e-01	2.013759e-01	1.089590e-02
307          	9.551281e-02	1.449590e-02	2.128927e-01	2.019592e-01	1.093353e-02
308          	9.553194e-02	1.449927e-02	2.129430e-01	2.020034e-01	1.093957e-02
309          	9.554216e-02	1.450248e-02	2.129706e-01	2.020275e-01	1.094316e-02
310          	9.555666e-02	1.450463e-02	2.130137e-01	2.020635e-01	1.095018e-02
311          	9.562411e-02	1.449180e-02	2.131966e-01	2.022224e-01	1.097417e-02
312          	9.564983e-02	1.448997e-02	2.132696e-01	2.022846e-01	1.098496e-02
313          	9.570490e-02	1.448577e-02	2.134048e-01	2.024073e-01	1.099751e-02
314          	9.596129e-02	1.446833e-02	2.139982e-01	2.029604e-01	1.103783e-02
315          	9.602358e-02	1.446652e-02	2.141480e-01	2.030976e-01	1.105043e-02
316          	9.609784e-02	1.446623e-02	2.143278e-01	2.032617e-01	1.106604e-02
317          	9.626055e-02	1.445975e-02	2.147316e-01	2.036263e-01	1.110523e-02
318          	9.650646e-02	1.446190e-02	2.153312e-01	2.041721e-01	1.115915e-02
319          	9.652723e-02	1.446415e-02	2.153901e-01	2.042223e-01	1.116784e-02
320          	9.653665e-02	1.446570e-02	2.154244e-01	2.042489e-01	1.117556e-02
321          	9.657132e-02	1.445872e-02	2.155519e-01	2.043473e-01	1.120464e-02
322          	9.657903e-02	1.445753e-02	2.155897e-01	2.043739e-01	1.121583e-02
323          	9.660151e-02	1.445325e-02	2.156642e-01	2.044336e-01	1.123060e-02
324          	9.674685e-02	1.442861e-02	2.160681e-01	2.047809e-01	1.128720e-02
325          	9.679008e-02	1.442309e-02	2.161900e-01	2.048851e-01	1.130490e-02
326          	9.684738e-02	1.441791e-02	2.163438e-01	2.050193e-01	1.132453e-02
327          	9.700114e-02	1.440135e-02	2.167486e-01	2.053754e-01	1.137315e-02
328          	9.725066e-02	1.439193e-02	2.173819e-01	2.059416e-01	1.144030e-02
329          	9.727137e-02	1.438972e-02	2.174480e-01	2.059954e-01	1.145263e-02
330          	9.728547e-02	1.439017e-02	2.175040e-01	2.060375e-01	1.146652e-02
331          	9.732181e-02	1.438364e-02	2.176699e-01	2.061568e-01	1.151313e-02
332          	9.732378e-02	1.438186e-02	2.177054e-01	2.061765e-01	1.152893e-02
333          	9.735572e-02	1.436580e-02	2.178608e-01	2.062861e-01	1.157470e-02
334          	9.736682e-02	1.436198e-02	2.179106e-01	2.063221e-01	1.158847e-02
335          	9.745900e-02	1.434276e-02	2.181863e-01	2.065522e-01	1.163417e-02
336          	9.749452e-02	1.433655e-02	2.182965e-01	2.066428e-01	1.165374e-02
337          	9.759777e-02	1.431640e-02	2.186022e-01	2.068989e-01	1.170334e-02
338          	9.779737e-02	1.429456e-02	2.191583e-01	2.073765e-01	1.178178e-02
339          	9.782847e-02	1.429158e-02	2.192546e-01	2.074558e-01	1.179881e-02
340          	9.791376e-02	1.428520e-02	2.195179e-01	2.076727e-01	1.184516e-02
341          	9.791880e-02	1.428418e-02	2.195488e-01	2.076932e-01	1.185559e-02
342          	9.792650e-02	1.427697e-02	2.196382e-01	2.077456e-01	1.189260e-02
343          	9.792779e-02	1.427328e-02	2.196687e-01	2.077621e-01	1.190654e-02
344          	9.796447e-02	1.425146e-02	2.198594e-01	2.078942e-01	1.196525e-02
345          	9.798279e-02	1.424419e-02	2.199345e-01	2.079501e-01	1.198449e-02
346          	9.807040e-02	1.421528e-02	2.202327e-01	2.081867e-01	1.204594e-02
347          	9.827091e-02	1.417953e-02	2.208047e-01	2.086733e-01	1.213146e-02
348          	9.829929e-02	1.417679e-02	2.208900e-01	2.087443e-01	1.214573e-02
349          	9.839343e-02	1.417335e-02	2.211425e-01	2.089647e-01	1.217781e-02
350          	9.840488e-02	1.417379e-02	2.211854e-01	2.089976e-01	1.218782e-02
351          	9.844840e-02	1.417234e-02	2.213415e-01	2.091192e-01	1.222236e-02
352          	9.845993e-02	1.416983e-02	2.214016e-01	2.091607e-01	1.224088e-02
353          	9.852176e-02	1.415297e-02	2.216604e-01	2.093520e-01	1.230846e-02
354          	9.854375e-02	1.414540e-02	2.217554e-01	2.094215e-01	1.233398e-02
355          	9.861879e-02	1.411711e-02	2.220259e-01	2.096317e-01	1.239416e-02
356          	9.877974e-02	1.408069e-02	2.225133e-01	2.100364e-01	1.247691e-02
357          	9.880564e-02	1.407671e-02	2.225904e-01	2.101008e-01	1.248957e-02
358          	9.882575e-02	1.407458e-02	2.226520e-01	2.101517e-01	1.250024e-02
359          	9.891370e-02	1.406673e-02	2.228964e-01	2.103619e-01	1.253450e-02
360          	9.893868e-02	1.406454e-02	2.229801e-01	2.104287e-01	1.255137e-02
361          	9.904434e-02	1.405351e-02	2.233086e-01	2.106987e-01	1.260998e-02
362          	9.907224e-02	1.404902e-02	2.234127e-01	2.107786e-01	1.263410e-02
363          	9.913960e-02	1.402816e-02	2.236637e-01	2.109714e-01	1.269224e-02
364          	9.924342e-02	1.400212e-02	2.240272e-01	2.112570e-01	1.277016e-02
365          	9.926314e-02	1.399725e-02	2.240986e-01	2.113125e-01	1.278618e-02
366          	9.934815e-02	1.397836e-02	2.243666e-01	2.115314e-01	1.283515e-02
367          	9.936445e-02	1.397523e-02	2.244215e-01	2.115752e-01	1.284632e-02
368          	9.944835e-02	1.396273e-02	2.246720e-01	2.117844e-01	1.288766e-02
369          	9.952251e-02	1.395411e-02	2.248936e-01	2.119693e-01	1.292430e-02
370          	9.953266e-02	1.395320e-02	2.249353e-01	2.120003e-01	1.293498e-02
371          	9.959494e-02	1.394386e-02	2.251594e-01	2.121746e-01	1.298477e-02
372          	9.964488e-02	1.392787e-02	2.253567e-01	2.123233e-01	1.303349e-02