# Force coefficients
# liftDir    : (0.000000e+00 1.000000e+00 0.000000e+00)
# dragDir    : (1.000000e+00 0.000000e+00 0.000000e+00)
# pitchAxis  : (0.000000e+00 0.000000e+00 1.000000e+00)
# magUInf    : 5.939300e+01
# lRef       : 1.000000e+00
# Aref       : 1.000000e+00
# CofR       : (0.000000e+00 0.000000e+00 0.000000e+00)
# Time       	Cm           	Cd           	Cl           	Cl(f)        	Cl(r)        
1            	4.783444e+00	4.112022e+00	3.909397e+00	6.738142e+00	-2.828745e+00
2            	3.957146e+00	3.261030e+00	3.489451e+00	5.701872e+00	-2.212421e+00
3            	-4.281509e-01	-4.934616e-01	-2.861698e-02	-4.424593e-01	4.138424e-01
4            	-2.910205e+00	-2.484489e+00	-2.281890e+00	-4.051150e+00	1.769260e+00
5            	-2.289544e+00	-1.818202e+00	-2.047848e+00	-3.313468e+00	1.265620e+00
6            	4.186832e-01	5.411310e-01	4.481316e-02	4.410898e-01	-3.962766e-01
7            	1.845926e+00	1.632864e+00	1.428168e+00	2.560009e+00	-1.131842e+00
8            	1.301179e+00	1.007809e+00	1.282713e+00	1.942536e+00	-6.598221e-01
9            	-2.189839e-01	-3.671097e-01	1.755307e-01	-1.312186e-01	3.067493e-01
10           	-1.011074e+00	-9.549496e-01	-6.405875e-01	-1.331368e+00	6.907805e-01
11           	-6.650400e-01	-5.356569e-01	-5.883619e-01	-9.592210e-01	3.708590e-01
12           	1.758550e-01	2.589514e-01	-3.453339e-02	1.585884e-01	-1.931217e-01
13           	6.376867e-01	6.093323e-01	4.484178e-01	8.618956e-01	-4.134778e-01
14           	4.323373e-01	3.492838e-01	4.431800e-01	6.539273e-01	-2.107473e-01
15           	-5.337862e-02	-1.335853e-01	1.568524e-01	2.504757e-02	1.318048e-01
16           	-3.122934e-01	-3.446577e-01	-1.071983e-01	-3.658926e-01	2.586943e-01
17           	-1.877202e-01	-1.850004e-01	-1.159369e-01	-2.456886e-01	1.297517e-01
18           	9.973164e-02	1.151075e-01	2.926004e-02	1.143617e-01	-8.510162e-02
19           	2.337693e-01	2.285631e-01	1.615587e-01	3.145487e-01	-1.529900e-01
20           	1.592420e-01	1.310308e-01	1.748230e-01	2.466535e-01	-7.183050e-02
21           	-5.360115e-04	-4.430260e-02	1.107086e-01	5.481828e-02	5.589030e-02
22           	-7.440997e-02	-1.110074e-01	3.908532e-02	-5.486731e-02	9.395263e-02
23           	-2.805617e-02	-5.001291e-02	2.654103e-02	-1.478566e-02	4.132668e-02
24           	6.176572e-02	5.340550e-02	5.145512e-02	8.749328e-02	-3.603816e-02
25           	9.795204e-02	8.725169e-02	8.460154e-02	1.402528e-01	-5.565126e-02
26           	7.298924e-02	5.057809e-02	1.020597e-01	1.240191e-01	-2.195937e-02
27           	2.809899e-02	-5.039822e-03	9.624597e-02	7.622197e-02	2.002399e-02
28           	1.095453e-02	-2.259984e-02	7.971040e-02	5.080973e-02	2.890067e-02
29           	2.428803e-02	-3.146315e-03	6.648169e-02	5.752888e-02	8.952812e-03
30           	4.688225e-02	2.622995e-02	6.489543e-02	7.932997e-02	-1.443454e-02
31           	5.516351e-02	3.528920e-02	7.240685e-02	9.136693e-02	-1.896008e-02
32           	4.883287e-02	2.529088e-02	8.164621e-02	8.965598e-02	-8.009765e-03
33           	3.866960e-02	1.003932e-02	8.591285e-02	8.162603e-02	4.286825e-03
34           	3.570760e-02	5.313248e-03	8.346198e-02	7.743859e-02	6.023396e-03
35           	3.975386e-02	1.006747e-02	7.940537e-02	7.945654e-02	-5.116967e-05
36           	4.512439e-02	1.765438e-02	7.594453e-02	8.309666e-02	-7.152127e-03
37           	4.670672e-02	2.072276e-02	7.558587e-02	8.449966e-02	-8.913784e-03
38           	4.498076e-02	1.869770e-02	7.732240e-02	8.364196e-02	-6.319557e-03
39           	4.323619e-02	1.458882e-02	8.252334e-02	8.449786e-02	-1.974521e-03
40           	4.352753e-02	1.261241e-02	8.573199e-02	8.639352e-02	-6.615306e-04
41           	4.517846e-02	1.353778e-02	8.551183e-02	8.793437e-02	-2.422542e-03
42           	4.651311e-02	1.561914e-02	8.264050e-02	8.783336e-02	-5.192862e-03
43           	4.638493e-02	1.676203e-02	8.001618e-02	8.639302e-02	-6.376840e-03
44           	4.557289e-02	1.634415e-02	7.979825e-02	8.547201e-02	-5.673762e-03
45           	4.525768e-02	1.528298e-02	8.210418e-02	8.630977e-02	-4.205592e-03
46           	4.615129e-02	1.460383e-02	8.532902e-02	8.881580e-02	-3.486782e-03
47           	4.723744e-02	1.474037e-02	8.679914e-02	9.063700e-02	-3.837868e-03
48           	4.855747e-02	1.524314e-02	8.747877e-02	9.229685e-02	-4.818085e-03
49           	4.882368e-02	1.560360e-02	8.679739e-02	9.222237e-02	-5.424981e-03
50           	4.846956e-02	1.552000e-02	8.624672e-02	9.159292e-02	-5.346198e-03
51           	4.780756e-02	1.526948e-02	8.597761e-02	9.079637e-02	-4.818757e-03
52           	4.779923e-02	1.511167e-02	8.643756e-02	9.101801e-02	-4.580453e-03
53           	4.831805e-02	1.503844e-02	8.766489e-02	9.215049e-02	-4.485608e-03
54           	4.955770e-02	1.502226e-02	8.992398e-02	9.451969e-02	-4.595712e-03
55           	5.010594e-02	1.507069e-02	9.073909e-02	9.547548e-02	-4.736390e-03
56           	5.034508e-02	1.513315e-02	9.094205e-02	9.581611e-02	-4.874057e-03
57           	5.030891e-02	1.518279e-02	9.084028e-02	9.572905e-02	-4.888769e-03
58           	5.034089e-02	1.515776e-02	9.106361e-02	9.587270e-02	-4.809089e-03
59           	5.046854e-02	1.510055e-02	9.157158e-02	9.625434e-02	-4.682752e-03
60           	5.076518e-02	1.500782e-02	9.243711e-02	9.698373e-02	-4.546621e-03
61           	5.117273e-02	1.490649e-02	9.353345e-02	9.793946e-02	-4.406008e-03
62           	5.158758e-02	1.484160e-02	9.448490e-02	9.883003e-02	-4.345132e-03
63           	5.190219e-02	1.484487e-02	9.512419e-02	9.946429e-02	-4.340100e-03
64           	5.213006e-02	1.489803e-02	9.551404e-02	9.988708e-02	-4.373039e-03
65           	5.225662e-02	1.495392e-02	9.579753e-02	1.001554e-01	-4.357851e-03
66           	5.238967e-02	1.495031e-02	9.620952e-02	1.004944e-01	-4.284910e-03
67           	5.261200e-02	1.489524e-02	9.691105e-02	1.010675e-01	-4.156479e-03
68           	5.286576e-02	1.481079e-02	9.766794e-02	1.016997e-01	-4.031789e-03
69           	5.292063e-02	1.478589e-02	9.784198e-02	1.018416e-01	-3.999644e-03
70           	5.329047e-02	1.467174e-02	9.893189e-02	1.027564e-01	-3.824526e-03
71           	5.365971e-02	1.459678e-02	9.998682e-02	1.036531e-01	-3.666304e-03
72           	5.371529e-02	1.458674e-02	1.001470e-01	1.037888e-01	-3.641783e-03
73           	5.395164e-02	1.463014e-02	1.008060e-01	1.043546e-01	-3.548638e-03
74           	5.399538e-02	1.463163e-02	1.009389e-01	1.044648e-01	-3.525927e-03
75           	5.418048e-02	1.465788e-02	1.015583e-01	1.049596e-01	-3.401333e-03
76           	5.423162e-02	1.464376e-02	1.017341e-01	1.050987e-01	-3.364578e-03
77           	5.450443e-02	1.456693e-02	1.026501e-01	1.058295e-01	-3.179372e-03
78           	5.457517e-02	1.453508e-02	1.028860e-01	1.060182e-01	-3.132170e-03
79           	5.480442e-02	1.445899e-02	1.036084e-01	1.066086e-01	-3.000205e-03
80           	5.493423e-02	1.441268e-02	1.040157e-01	1.069421e-01	-2.926359e-03
81           	5.544366e-02	1.429043e-02	1.055627e-01	1.082250e-01	-2.662314e-03
82           	5.550897e-02	1.427333e-02	1.057839e-01	1.084009e-01	-2.617016e-03
83           	5.555450e-02	1.427152e-02	1.059660e-01	1.085375e-01	-2.571472e-03
84           	5.568811e-02	1.429115e-02	1.065596e-01	1.089679e-01	-2.408312e-03
85           	5.570659e-02	1.429039e-02	1.066857e-01	1.090494e-01	-2.363740e-03
86           	5.573043e-02	1.428427e-02	1.068423e-01	1.091516e-01	-2.309271e-03
87           	5.585836e-02	1.424184e-02	1.075543e-01	1.096355e-01	-2.081200e-03
88           	5.590516e-02	1.421834e-02	1.077657e-01	1.097880e-01	-2.022311e-03
89           	5.598747e-02	1.418386e-02	1.080803e-01	1.100276e-01	-1.947304e-03
90           	5.638037e-02	1.404167e-02	1.093890e-01	1.110749e-01	-1.685878e-03
91           	5.644944e-02	1.401536e-02	1.096335e-01	1.112662e-01	-1.632674e-03
92           	5.652317e-02	1.399788e-02	1.098795e-01	1.114629e-01	-1.583440e-03
93           	5.661017e-02	1.397955e-02	1.101864e-01	1.117034e-01	-1.516968e-03
94           	5.692135e-02	1.391933e-02	1.112966e-01	1.125696e-01	-1.273055e-03
95           	5.696976e-02	1.390411e-02	1.115175e-01	1.127285e-01	-1.211005e-03
96           	5.700364e-02	1.389080e-02	1.117178e-01	1.128625e-01	-1.144733e-03
97           	5.703516e-02	1.387378e-02	1.119611e-01	1.130157e-01	-1.054625e-03
98           	5.713115e-02	1.381246e-02	1.127774e-01	1.135198e-01	-7.424662e-04
99           	5.715184e-02	1.379508e-02	1.129547e-01	1.136292e-01	-6.744843e-04
100          	5.719120e-02	1.377981e-02	1.131518e-01	1.137671e-01	-6.153084e-04
101          	5.725139e-02	1.375929e-02	1.134076e-01	1.139552e-01	-5.475941e-04
102          	5.754613e-02	1.365400e-02	1.145056e-01	1.147989e-01	-2.933246e-04
103          	5.759733e-02	1.362988e-02	1.147240e-01	1.149593e-01	-2.353506e-04
104          	5.764407e-02	1.360840e-02	1.149315e-01	1.151098e-01	-1.783418e-04
105          	5.769749e-02	1.358221e-02	1.151916e-01	1.152933e-01	-1.016743e-04
106          	5.786640e-02	1.349003e-02	1.160795e-01	1.159062e-01	1.733621e-04
107          	5.788725e-02	1.346950e-02	1.162653e-01	1.160199e-01	2.453820e-04
108          	5.789891e-02	1.345317e-02	1.164362e-01	1.161170e-01	3.191738e-04
109          	5.791074e-02	1.343503e-02	1.166444e-01	1.162329e-01	4.114552e-04
110          	5.796918e-02	1.338817e-02	1.172298e-01	1.165841e-01	6.457250e-04
111          	5.799152e-02	1.336531e-02	1.174696e-01	1.167263e-01	7.432940e-04
112          	5.803001e-02	1.334052e-02	1.177443e-01	1.169022e-01	8.421345e-04
113          	5.823410e-02	1.325917e-02	1.187042e-01	1.175862e-01	1.118020e-03
114          	5.826510e-02	1.324380e-02	1.188706e-01	1.177004e-01	1.170191e-03
115          	5.829509e-02	1.323143e-02	1.190242e-01	1.178072e-01	1.216987e-03
116          	5.833183e-02	1.321543e-02	1.192171e-01	1.179404e-01	1.276732e-03
117          	5.844465e-02	1.313910e-02	1.198541e-01	1.183717e-01	1.482405e-03
118          	5.845757e-02	1.311326e-02	1.200226e-01	1.184689e-01	1.553755e-03
119          	5.845620e-02	1.308040e-02	1.201984e-01	1.185554e-01	1.642993e-03
120          	5.844405e-02	1.296681e-02	1.207715e-01	1.188298e-01	1.941705e-03
121          	5.843552e-02	1.294559e-02	1.208970e-01	1.188840e-01	2.013006e-03
122          	5.843677e-02	1.293103e-02	1.210372e-01	1.189554e-01	2.081847e-03
123          	5.845437e-02	1.291709e-02	1.212397e-01	1.190742e-01	2.165498e-03
124          	5.855901e-02	1.286598e-02	1.219712e-01	1.195446e-01	2.426562e-03
125          	5.858163e-02	1.285319e-02	1.221478e-01	1.196555e-01	2.492263e-03
126          	5.860643e-02	1.283878e-02	1.223280e-01	1.197705e-01	2.557596e-03
127          	5.863879e-02	1.281633e-02	1.225650e-01	1.199213e-01	2.643719e-03
128          	5.874012e-02	1.272043e-02	1.233273e-01	1.204038e-01	2.923526e-03
129          	5.874611e-02	1.269757e-02	1.234780e-01	1.204851e-01	2.992906e-03
130          	5.874088e-02	1.267527e-02	1.236015e-01	1.205416e-01	3.059852e-03
131          	5.872876e-02	1.264829e-02	1.237395e-01	1.205985e-01	3.140976e-03
132          	5.868085e-02	1.254800e-02	1.241529e-01	1.207573e-01	3.395595e-03
133          	5.867646e-02	1.252956e-02	1.242692e-01	1.208111e-01	3.458137e-03
134          	5.866838e-02	1.251224e-02	1.243857e-01	1.208612e-01	3.524480e-03
135          	5.866922e-02	1.249269e-02	1.245584e-01	1.209484e-01	3.609997e-03
136          	5.869661e-02	1.242063e-02	1.251481e-01	1.212706e-01	3.877426e-03
137          	5.869788e-02	1.240539e-02	1.252857e-01	1.213407e-01	3.944957e-03
138          	5.869850e-02	1.239043e-02	1.254196e-01	1.214083e-01	4.011294e-03
139          	5.870137e-02	1.237085e-02	1.255890e-01	1.214959e-01	4.093104e-03
140          	5.871452e-02	1.229303e-02	1.261064e-01	1.217677e-01	4.338655e-03
141          	5.871238e-02	1.227787e-02	1.262176e-01	1.218212e-01	4.396435e-03
142          	5.870875e-02	1.226351e-02	1.263216e-01	1.218696e-01	4.452078e-03
143          	5.870443e-02	1.224347e-02	1.264601e-01	1.219345e-01	4.525616e-03
144          	5.867909e-02	1.215669e-02	1.268770e-01	1.221176e-01	4.759383e-03
145          	5.866942e-02	1.213748e-02	1.269846e-01	1.221617e-01	4.822858e-03
146          	5.865987e-02	1.211891e-02	1.270936e-01	1.222067e-01	4.886912e-03
147          	5.865178e-02	1.209573e-02	1.272434e-01	1.222735e-01	4.969918e-03
148          	5.862898e-02	1.201327e-02	1.277019e-01	1.224799e-01	5.221950e-03
149          	5.862368e-02	1.200042e-02	1.278050e-01	1.225262e-01	5.278806e-03
150          	5.862020e-02	1.199130e-02	1.279004e-01	1.225704e-01	5.330024e-03
151          	5.861876e-02	1.198027e-02	1.280241e-01	1.226308e-01	5.393268e-03
152          	5.860521e-02	1.192377e-02	1.284004e-01	1.228054e-01	5.594985e-03
153          	5.859865e-02	1.190938e-02	1.285014e-01	1.228494e-01	5.652061e-03
154          	5.859002e-02	1.189246e-02	1.286022e-01	1.228911e-01	5.711054e-03
155          	5.855234e-02	1.182020e-02	1.289066e-01	1.230056e-01	5.900951e-03
156          	5.854356e-02	1.180715e-02	1.289836e-01	1.230353e-01	5.948214e-03
157          	5.853605e-02	1.179541e-02	1.290691e-01	1.230706e-01	5.998478e-03
158          	5.852936e-02	1.178020e-02	1.291894e-01	1.231241e-01	6.065331e-03
159          	5.849219e-02	1.170910e-02	1.295441e-01	1.232642e-01	6.279842e-03
160          	5.848072e-02	1.169379e-02	1.296302e-01	1.232958e-01	6.334377e-03
161          	5.846747e-02	1.167906e-02	1.297054e-01	1.233202e-01	6.385228e-03
162          	5.841777e-02	1.162381e-02	1.299192e-01	1.233774e-01	6.541839e-03
163          	5.840937e-02	1.161500e-02	1.299787e-01	1.233987e-01	6.579977e-03
164          	5.840401e-02	1.160696e-02	1.300535e-01	1.234307e-01	6.622718e-03
165          	5.840090e-02	1.159505e-02	1.301691e-01	1.234855e-01	6.683663e-03
166          	5.838007e-02	1.153743e-02	1.305186e-01	1.236394e-01	6.879229e-03
167          	5.837285e-02	1.152468e-02	1.306037e-01	1.236747e-01	6.928975e-03
168          	5.836190e-02	1.151133e-02	1.306743e-01	1.236991e-01	6.975252e-03
169          	5.831168e-02	1.145690e-02	1.308617e-01	1.237425e-01	7.119179e-03
170          	5.831322e-02	1.145113e-02	1.309189e-01	1.237727e-01	7.146243e-03
171          	5.830718e-02	1.144292e-02	1.309762e-01	1.237953e-01	7.180905e-03
172          	5.830139e-02	1.143042e-02	1.310657e-01	1.238342e-01	7.231434e-03
173          	5.826714e-02	1.137052e-02	1.313429e-01	1.239386e-01	7.404321e-03
174          	5.825659e-02	1.135807e-02	1.314094e-01	1.239613e-01	7.448119e-03
175          	5.824548e-02	1.134773e-02	1.314636e-01	1.239773e-01	7.486321e-03
176          	5.820227e-02	1.130860e-02	1.316114e-01	1.240080e-01	7.603411e-03
177          	5.819581e-02	1.130255e-02	1.316525e-01	1.240221e-01	7.630434e-03
178          	5.819133e-02	1.129596e-02	1.317057e-01	1.240442e-01	7.661530e-03
179          	5.818791e-02	1.128535e-02	1.317897e-01	1.240828e-01	7.706964e-03
180          	5.816110e-02	1.123344e-02	1.320474e-01	1.241848e-01	7.862574e-03
181          	5.815693e-02	1.122370e-02	1.321106e-01	1.242122e-01	7.898356e-03
182          	5.815316e-02	1.121543e-02	1.321629e-01	1.242346e-01	7.928306e-03
183          	5.813787e-02	1.118247e-02	1.323155e-01	1.242956e-01	8.019871e-03
184          	5.813891e-02	1.117858e-02	1.323550e-01	1.243164e-01	8.038581e-03
185          	5.814204e-02	1.117423e-02	1.324057e-01	1.243449e-01	8.060783e-03
186          	5.814703e-02	1.116598e-02	1.324860e-01	1.243900e-01	8.095961e-03
187          	5.814848e-02	1.112295e-02	1.327388e-01	1.245179e-01	8.220938e-03
188          	5.814857e-02	1.111343e-02	1.328056e-01	1.245514e-01	8.254241e-03
189          	5.814456e-02	1.110367e-02	1.328616e-01	1.245754e-01	8.286263e-03
190          	5.811625e-02	1.106589e-02	1.329987e-01	1.246156e-01	8.383100e-03
191          	5.811499e-02	1.106242e-02	1.330267e-01	1.246284e-01	8.398382e-03
192          	5.811751e-02	1.106044e-02	1.330590e-01	1.246470e-01	8.412003e-03
193          	5.812414e-02	1.105759e-02	1.331106e-01	1.246794e-01	8.431165e-03
194          	5.814492e-02	1.103710e-02	1.332932e-01	1.247915e-01	8.501697e-03
195          	5.815466e-02	1.103221e-02	1.333565e-01	1.248329e-01	8.523601e-03
196          	5.816650e-02	1.102529e-02	1.334322e-01	1.248826e-01	8.549617e-03
197          	5.819843e-02	1.099401e-02	1.336696e-01	1.250333e-01	8.636391e-03
198          	5.820760e-02	1.098946e-02	1.337220e-01	1.250686e-01	8.653406e-03
199          	5.821579e-02	1.098519e-02	1.337704e-01	1.251010e-01	8.669399e-03
200          	5.822488e-02	1.097949e-02	1.338288e-01	1.251393e-01	8.689510e-03
201          	5.824763e-02	1.095141e-02	1.340113e-01	1.252533e-01	8.758047e-03
202          	5.825719e-02	1.094824e-02	1.340550e-01	1.252847e-01	8.770330e-03
203          	5.826903e-02	1.094581e-02	1.341005e-01	1.253193e-01	8.781230e-03
204          	5.831274e-02	1.093273e-02	1.342661e-01	1.254458e-01	8.820308e-03
205          	5.832936e-02	1.093097e-02	1.343184e-01	1.254886e-01	8.829868e-03
206          	5.835010e-02	1.092868e-02	1.343834e-01	1.255418e-01	8.841579e-03
207          	5.837961e-02	1.092458e-02	1.344781e-01	1.256187e-01	8.859428e-03
208          	5.848257e-02	1.090265e-02	1.348105e-01	1.258878e-01	8.922683e-03
209          	5.851129e-02	1.089967e-02	1.348901e-01	1.259563e-01	8.933770e-03
210          	5.857068e-02	1.088621e-02	1.350613e-01	1.261013e-01	8.959950e-03
211          	5.857805e-02	1.088612e-02	1.350770e-01	1.261166e-01	8.960458e-03
212          	5.858240e-02	1.088608e-02	1.350881e-01	1.261264e-01	8.961626e-03
213          	5.858770e-02	1.088531e-02	1.351075e-01	1.261415e-01	8.966064e-03
214          	5.860918e-02	1.087460e-02	1.352014e-01	1.262099e-01	8.991534e-03
215          	5.862852e-02	1.087238e-02	1.352547e-01	1.262559e-01	8.998828e-03
216          	5.866645e-02	1.086907e-02	1.353488e-01	1.263408e-01	9.007929e-03
217          	5.881526e-02	1.085349e-02	1.357123e-01	1.266714e-01	9.040914e-03
218          	5.885654e-02	1.085262e-02	1.357998e-01	1.267564e-01	9.043340e-03
219          	5.889333e-02	1.085242e-02	1.358757e-01	1.268312e-01	9.044521e-03
220          	5.893087e-02	1.085202e-02	1.359558e-01	1.269088e-01	9.047040e-03
221          	5.906440e-02	1.084550e-02	1.362582e-01	1.271935e-01	9.064697e-03
222          	5.909156e-02	1.084542e-02	1.363158e-01	1.272494e-01	9.066323e-03
223          	5.911818e-02	1.084535e-02	1.363724e-01	1.273044e-01	9.068010e-03
224          	5.920982e-02	1.084134e-02	1.365771e-01	1.274984e-01	9.078738e-03
225          	5.923804e-02	1.084150e-02	1.366332e-01	1.275547e-01	9.078586e-03
226          	5.926483e-02	1.084140e-02	1.366863e-01	1.276080e-01	9.078328e-03
227          	5.931491e-02	1.084040e-02	1.367867e-01	1.277082e-01	9.078432e-03
228          	5.948531e-02	1.083050e-02	1.371411e-01	1.280559e-01	9.085262e-03
229          	5.952655e-02	1.083015e-02	1.372191e-01	1.281361e-01	9.082973e-03
230          	5.956140e-02	1.082995e-02	1.372842e-01	1.282035e-01	9.080678e-03
231          	5.960033e-02	1.082960e-02	1.373590e-01	1.282798e-01	9.079163e-03
232          	5.975604e-02	1.082584e-02	1.376747e-01	1.285934e-01	9.081291e-03
233          	5.979671e-02	1.082656e-02	1.377512e-01	1.286723e-01	9.078913e-03
234          	5.984190e-02	1.082790e-02	1.378359e-01	1.287598e-01	9.076034e-03
235          	6.001423e-02	1.083079e-02	1.381724e-01	1.291004e-01	9.071967e-03
236          	6.005706e-02	1.083253e-02	1.382504e-01	1.291822e-01	9.068113e-03
237          	6.010210e-02	1.083400e-02	1.383327e-01	1.292685e-01	9.064272e-03
238          	6.015914e-02	1.083490e-02	1.384397e-01	1.293790e-01	9.060696e-03
239          	6.035646e-02	1.083192e-02	1.388248e-01	1.297688e-01	9.055922e-03
240          	6.040345e-02	1.083218e-02	1.389091e-01	1.298580e-01	9.051084e-03
241          	6.044506e-02	1.083219e-02	1.389824e-01	1.299363e-01	9.046157e-03
242          	6.049755e-02	1.083193e-02	1.390762e-01	1.300356e-01	9.040548e-03
243          	6.069710e-02	1.082852e-02	1.394516e-01	1.304229e-01	9.028682e-03
244          	6.074470e-02	1.082937e-02	1.395364e-01	1.305129e-01	9.023522e-03
245          	6.079473e-02	1.083086e-02	1.396265e-01	1.306080e-01	9.018507e-03
246          	6.086260e-02	1.083312e-02	1.397514e-01	1.307383e-01	9.013085e-03
247          	6.111246e-02	1.083859e-02	1.402310e-01	1.312280e-01	9.003052e-03
248          	6.116713e-02	1.084054e-02	1.403294e-01	1.313318e-01	8.997566e-03
249          	6.121251e-02	1.084168e-02	1.404106e-01	1.314178e-01	8.992792e-03
250          	6.126555e-02	1.084215e-02	1.405074e-01	1.315192e-01	8.988127e-03
251          	6.146427e-02	1.083929e-02	1.408874e-01	1.319080e-01	8.979422e-03
252          	6.151561e-02	1.083974e-02	1.409793e-01	1.320052e-01	8.974015e-03
253          	6.156841e-02	1.084046e-02	1.410731e-01	1.321050e-01	8.968147e-03
254          	6.176836e-02	1.084034e-02	1.414445e-01	1.324906e-01	8.953878e-03
255          	6.181869e-02	1.084160e-02	1.415339e-01	1.325856e-01	8.948261e-03
256          	6.187874e-02	1.084319e-02	1.416426e-01	1.327001e-01	8.942576e-03
257          	6.211092e-02	1.084526e-02	1.420887e-01	1.331553e-01	8.933440e-03
258          	6.215948e-02	1.084661e-02	1.421778e-01	1.332484e-01	8.929400e-03
259          	6.220713e-02	1.084775e-02	1.422662e-01	1.333402e-01	8.925955e-03
260          	6.227128e-02	1.084881e-02	1.423874e-01	1.334650e-01	8.922413e-03
261          	6.250347e-02	1.084904e-02	1.428394e-01	1.339232e-01	8.916253e-03
262          	6.256312e-02	1.085027e-02	1.429482e-01	1.340372e-01	8.910979e-03
263          	6.262184e-02	1.085140e-02	1.430541e-01	1.341489e-01	8.905193e-03
264          	6.269852e-02	1.085236e-02	1.431943e-01	1.342957e-01	8.898619e-03
265          	6.297938e-02	1.085050e-02	1.437317e-01	1.348452e-01	8.886461e-03
266          	6.304255e-02	1.085145e-02	1.438490e-01	1.349671e-01	8.881970e-03
267          	6.310264e-02	1.085240e-02	1.439628e-01	1.350841e-01	8.878764e-03
268          	6.328673e-02	1.085148e-02	1.443353e-01	1.354544e-01	8.880908e-03
269          	6.332467e-02	1.085287e-02	1.444078e-01	1.355286e-01	8.879237e-03
270          	6.336278e-02	1.085447e-02	1.444807e-01	1.356032e-01	8.877595e-03
271          	6.354054e-02	1.085720e-02	1.448357e-01	1.359584e-01	8.877288e-03
272          	6.359448e-02	1.085893e-02	1.449366e-01	1.360628e-01	8.873819e-03
273          	6.367204e-02	1.086056e-02	1.450819e-01	1.362130e-01	8.868893e-03
274          	6.396122e-02	1.085884e-02	1.456474e-01	1.367849e-01	8.862506e-03
275          	6.402566e-02	1.085965e-02	1.457708e-01	1.369110e-01	8.859723e-03
276          	6.408751e-02	1.086000e-02	1.458926e-01	1.370338e-01	8.858785e-03
277          	6.426591e-02	1.085536e-02	1.462666e-01	1.373992e-01	8.867409e-03
278          	6.430227e-02	1.085674e-02	1.463395e-01	1.374720e-01	8.867475e-03
279          	6.434155e-02	1.085871e-02	1.464181e-01	1.375506e-01	8.867512e-03
280          	6.451433e-02	1.086197e-02	1.467760e-01	1.379023e-01	8.873679e-03
281          	6.457103e-02	1.086434e-02	1.468882e-01	1.380151e-01	8.873091e-03
282          	6.478788e-02	1.086519e-02	1.473311e-01	1.384534e-01	8.877662e-03
283          	6.483212e-02	1.086640e-02	1.474201e-01	1.385422e-01	8.877950e-03
284          	6.489090e-02	1.086703e-02	1.475415e-01	1.386617e-01	8.879862e-03
285          	6.511818e-02	1.086123e-02	1.480258e-01	1.391311e-01	8.894745e-03
286          	6.516788e-02	1.086267e-02	1.481305e-01	1.392331e-01	8.897350e-03
287          	6.531043e-02	1.086183e-02	1.484360e-01	1.395285e-01	8.907587e-03
288          	6.533852e-02	1.086381e-02	1.484957e-01	1.395864e-01	8.909326e-03
289          	6.536951e-02	1.086561e-02	1.485645e-01	1.396518e-01	8.912727e-03
290          	6.555870e-02	1.086532e-02	1.489800e-01	1.400487e-01	8.931317e-03
291          	6.562487e-02	1.086690e-02	1.491245e-01	1.401871e-01	8.937393e-03
292          	6.584071e-02	1.086248e-02	1.496030e-01	1.406422e-01	8.960808e-03
293          	6.588486e-02	1.086354e-02	1.497025e-01	1.407361e-01	8.966401e-03
294          	6.601452e-02	1.085955e-02	1.500000e-01	1.410145e-01	8.985490e-03
295          	6.603569e-02	1.086111e-02	1.500515e-01	1.410614e-01	8.990043e-03
296          	6.606757e-02	1.086230e-02	1.501296e-01	1.411324e-01	8.997247e-03
297          	6.616218e-02	1.086045e-02	1.503597e-01	1.413420e-01	9.017651e-03
298          	6.637809e-02	1.085313e-02	1.508608e-01	1.418085e-01	9.052325e-03
299          	6.642244e-02	1.085402e-02	1.509645e-01	1.419047e-01	9.059787e-03
300          	6.646038e-02	1.085455e-02	1.510560e-01	1.419884e-01	9.067644e-03
301          	6.662590e-02	1.084819e-02	1.514552e-01	1.423535e-01	9.101710e-03
302          	6.665984e-02	1.084857e-02	1.515443e-01	1.424320e-01	9.112313e-03
303          	6.678872e-02	1.084013e-02	1.518805e-01	1.427290e-01	9.151535e-03
304          	6.680878e-02	1.084035e-02	1.519397e-01	1.427786e-01	9.161050e-03
305          	6.690197e-02	1.083157e-02	1.521937e-01	1.429988e-01	9.194886e-03
306          	6.692799e-02	1.083160e-02	1.522657e-01	1.430608e-01	9.204842e-03
307          	6.699466e-02	1.082845e-02	1.524416e-01	1.432154e-01	9.226121e-03
308          	6.716774e-02	1.081881e-02	1.528699e-01	1.436027e-01	9.267225e-03
309          	6.720192e-02	1.081858e-02	1.529603e-01	1.436821e-01	9.278255e-03
310          	6.733066e-02	1.080989e-02	1.533015e-01	1.439814e-01	9.320092e-03
311          	6.734580e-02	1.080993e-02	1.533513e-01	1.440215e-01	9.329849e-03
312          	6.736344e-02	1.080830e-02	1.534177e-01	1.440723e-01	9.345427e-03
313          	6.746687e-02	1.078669e-02	1.537644e-01	1.443491e-01	9.415333e-03
314          	6.752781e-02	1.077903e-02	1.539503e-01	1.445029e-01	9.447322e-03
315          	6.756535e-02	1.077680e-02	1.540506e-01	1.445907e-01	9.459969e-03
316          	6.771636e-02	1.076714e-02	1.544229e-01	1.449278e-01	9.495067e-03
317          	6.774763e-02	1.076694e-02	1.545066e-01	1.450010e-01	9.505692e-03
318          	6.784913e-02	1.076025e-02	1.547926e-01	1.452454e-01	9.547182e-03
319          	6.786221e-02	1.076023e-02	1.548404e-01	1.452824e-01	9.558002e-03
320          	6.793287e-02	1.074595e-02	1.550947e-01	1.454802e-01	9.614500e-03
321          	6.795901e-02	1.074180e-02	1.551876e-01	1.455528e-01	9.634766e-03
322          	6.805821e-02	1.072040e-02	1.555053e-01	1.458109e-01	9.694427e-03
323          	6.808369e-02	1.071761e-02	1.555830e-01	1.458752e-01	9.707799e-03
324          	6.815985e-02	1.070960e-02	1.557954e-01	1.460575e-01	9.737831e-03
325          	6.833443e-02	1.069617e-02	1.562460e-01	1.464574e-01	9.788555e-03
326          	6.835303e-02	1.069604e-02	1.563020e-01	1.465041e-01	9.797992e-03
327          	6.841689e-02	1.068995e-02	1.565051e-01	1.466694e-01	9.835647e-03
328          	6.843185e-02	1.068847e-02	1.565644e-01	1.467141e-01	9.850349e-03
329          	6.849855e-02	1.067073e-02	1.568233e-01	1.469102e-01	9.913099e-03
330          	6.851769e-02	1.066691e-02	1.568968e-01	1.469661e-01	9.930725e-03
331          	6.862090e-02	1.064251e-02	1.572348e-01	1.472383e-01	9.996508e-03
332          	6.867974e-02	1.063462e-02	1.574073e-01	1.473834e-01	1.002392e-02
333          	6.872228e-02	1.063164e-02	1.575201e-01	1.474823e-01	1.003778e-02
334          	6.886649e-02	1.061963e-02	1.578942e-01	1.478136e-01	1.008059e-02
335          	6.888739e-02	1.061877e-02	1.579594e-01	1.478671e-01	1.009229e-02
336          	6.898074e-02	1.060680e-02	1.582542e-01	1.481079e-01	1.014639e-02
337          	6.899788e-02	1.060473e-02	1.583202e-01	1.481580e-01	1.016222e-02
338          	6.906463e-02	1.058745e-02	1.585797e-01	1.483545e-01	1.022523e-02
339          	6.908408e-02	1.058400e-02	1.586518e-01	1.484100e-01	1.024183e-02
340          	6.914069e-02	1.057225e-02	1.588449e-01	1.485631e-01	1.028176e-02
341          	6.928372e-02	1.054876e-02	1.592617e-01	1.489146e-01	1.034714e-02
342          	6.930607e-02	1.054704e-02	1.593285e-01	1.489703e-01	1.035819e-02
343          	6.941124e-02	1.053678e-02	1.596160e-01	1.492192e-01	1.039674e-02
344          	6.943295e-02	1.053554e-02	1.596842e-01	1.492750e-01	1.040913e-02
345          	6.945511e-02	1.053319e-02	1.597632e-01	1.493367e-01	1.042651e-02
346          	6.956817e-02	1.051245e-02	1.601456e-01	1.496410e-01	1.050462e-02
347          	6.959484e-02	1.050885e-02	1.602391e-01	1.497144e-01	1.052471e-02
348          	6.965358e-02	1.049912e-02	1.604367e-01	1.498719e-01	1.056475e-02
349          	6.977872e-02	1.048164e-02	1.608067e-01	1.501821e-01	1.062465e-02
350          	6.980569e-02	1.047927e-02	1.608861e-01	1.502488e-01	1.063738e-02
351          	6.990342e-02	1.046771e-02	1.611621e-01	1.504845e-01	1.067764e-02
352          	6.991936e-02	1.046634e-02	1.612174e-01	1.505281e-01	1.068935e-02
353          	6.994109e-02	1.046279e-02	1.612994e-01	1.505908e-01	1.070860e-02
354          	7.004265e-02	1.043783e-02	1.616558e-01	1.508706e-01	1.078526e-02
355          	7.013067e-02	1.042047e-02	1.619475e-01	1.511044e-01	1.084306e-02
356          	7.014138e-02	1.041987e-02	1.619845e-01	1.511337e-01	1.085088e-02
357          	7.018453e-02	1.041743e-02	1.621106e-01	1.512398e-01	1.087076e-02
358          	7.029230e-02	1.041086e-02	1.624063e-01	1.514955e-01	1.091086e-02
359          	7.031228e-02	1.040972e-02	1.624718e-01	1.515482e-01	1.092363e-02
360          	7.042265e-02	1.039556e-02	1.628114e-01	1.518284e-01	1.098308e-02
361          	7.052367e-02	1.038025e-02	1.631278e-01	1.520876e-01	1.104023e-02
362          	7.053706e-02	1.037867e-02	1.631770e-01	1.521256e-01	1.105144e-02
363          	7.057951e-02	1.036681e-02	1.633374e-01	1.522482e-01	1.108919e-02
364          	7.059206e-02	1.036378e-02	1.633913e-01	1.522877e-01	1.110356e-02
365          	7.066302e-02	1.034467e-02	1.636461e-01	1.524861e-01	1.116005e-02
366          	7.068646e-02	1.034126e-02	1.637271e-01	1.525500e-01	1.117708e-02
367          	7.076430e-02	1.033065e-02	1.639686e-01	1.527486e-01	1.122000e-02
368          	7.093226e-02	1.031462e-02	1.644336e-01	1.531491e-01	1.128453e-02
369          	7.095149e-02	1.031387e-02	1.644925e-01	1.531978e-01	1.129476e-02
370          	7.103928e-02	1.030774e-02	1.647419e-01	1.534102e-01	1.133167e-02
371          	7.105526e-02	1.030667e-02	1.647985e-01	1.534545e-01	1.134400e-02
372          	7.106986e-02	1.030429e-02	1.648617e-01	1.535007e-01	1.136100e-02