-0.5 	-1 	0.5 	-33.0747
-0.484375 	-1 	0.5 	-33.1748
-0.46875 	-1 	0.5 	-33.256
-0.453125 	-1 	0.5 	-33.3461
-0.4375 	-1 	0.5 	-33.4695
-0.421875 	-1 	0.5 	-33.5835
-0.40625 	-1 	0.5 	-33.7426
-0.390625 	-1 	0.5 	-33.8467
-0.375 	-1 	0.5 	-33.9389
-0.359375 	-1 	0.5 	-34.1599
-0.34375 	-1 	0.5 	-34.3222
-0.328125 	-1 	0.5 	-34.4398
-0.3125 	-1 	0.5 	-34.6042
-0.296875 	-1 	0.5 	-34.756
-0.28125 	-1 	0.5 	-34.9011
-0.265625 	-1 	0.5 	-35.1191
-0.25 	-1 	0.5 	-35.3082
-0.234375 	-1 	0.5 	-35.5477
-0.21875 	-1 	0.5 	-35.7883
-0.203125 	-1 	0.5 	-35.9496
-0.1875 	-1 	0.5 	-36.1256
-0.171875 	-1 	0.5 	-36.3657
-0.15625 	-1 	0.5 	-36.6059
-0.140625 	-1 	0.5 	-36.8437
-0.125 	-1 	0.5 	-37.0543
-0.109375 	-1 	0.5 	-37.2886
-0.09375 	-1 	0.5 	-37.5487
-0.078125 	-1 	0.5 	-37.7776
-0.0625 	-1 	0.5 	-38.0232
-0.046875 	-1 	0.5 	-38.2331
-0.03125 	-1 	0.5 	-38.469
-0.015625 	-1 	0.5 	-38.7679
0 	-1 	0.5 	-38.9911
0.015625 	-1 	0.5 	-39.2878
0.03125 	-1 	0.5 	-39.3783
0.046875 	-1 	0.5 	-39.6195
0.0625 	-1 	0.5 	-39.8275
0.078125 	-1 	0.5 	-40.0785
0.09375 	-1 	0.5 	-40.2814
0.109375 	-1 	0.5 	-40.4509
0.125 	-1 	0.5 	-40.5972
0.140625 	-1 	0.5 	-40.8298
0.15625 	-1 	0.5 	-41.0673
0.171875 	-1 	0.5 	-41.2349
0.1875 	-1 	0.5 	-41.3749
0.203125 	-1 	0.5 	-41.4986
0.21875 	-1 	0.5 	-41.6146
0.234375 	-1 	0.5 	-41.7338
0.25 	-1 	0.5 	-41.858
0.265625 	-1 	0.5 	-41.9815
0.28125 	-1 	0.5 	-42.0745
0.296875 	-1 	0.5 	-42.1622
0.3125 	-1 	0.5 	-42.2567
0.328125 	-1 	0.5 	-42.2904
0.34375 	-1 	0.5 	-42.351
0.359375 	-1 	0.5 	-42.3498
0.375 	-1 	0.5 	-42.3895
0.390625 	-1 	0.5 	-42.424
0.40625 	-1 	0.5 	-42.3789
0.421875 	-1 	0.5 	-42.3309
0.4375 	-1 	0.5 	-42.3777
0.453125 	-1 	0.5 	-42.4529
0.46875 	-1 	0.5 	-42.3137
0.484375 	-1 	0.5 	-42.2073
0.5 	-1 	0.5 	-42.0804
0.515625 	-1 	0.5 	-42.0487
0.53125 	-1 	0.5 	-41.974
0.546875 	-1 	0.5 	-41.8685
0.5625 	-1 	0.5 	-41.7934
0.578125 	-1 	0.5 	-41.6923
0.59375 	-1 	0.5 	-41.5826
0.609375 	-1 	0.5 	-41.4961
0.625 	-1 	0.5 	-41.3626
0.640625 	-1 	0.5 	-41.1971
0.65625 	-1 	0.5 	-41.0748
0.671875 	-1 	0.5 	-40.9472
0.6875 	-1 	0.5 	-40.8322
0.703125 	-1 	0.5 	-40.667
0.71875 	-1 	0.5 	-40.503
0.734375 	-1 	0.5 	-40.3359
0.75 	-1 	0.5 	-40.1925
0.765625 	-1 	0.5 	-40.0588
0.78125 	-1 	0.5 	-39.9346
0.796875 	-1 	0.5 	-39.7744
0.8125 	-1 	0.5 	-39.621
0.828125 	-1 	0.5 	-39.4599
0.84375 	-1 	0.5 	-39.3245
0.859375 	-1 	0.5 	-39.1466
0.875 	-1 	0.5 	-39.0021
0.890625 	-1 	0.5 	-38.8715
0.90625 	-1 	0.5 	-38.7338
0.921875 	-1 	0.5 	-38.6082
0.9375 	-1 	0.5 	-38.4668
0.953125 	-1 	0.5 	-38.3268
0.96875 	-1 	0.5 	-38.184
0.984375 	-1 	0.5 	-38.0689
1 	-1 	0.5 	-37.9533
1.01562 	-1 	0.5 	-37.8449
1.03125 	-1 	0.5 	-37.7554
1.04688 	-1 	0.5 	-37.6635
1.0625 	-1 	0.5 	-37.5596
1.07812 	-1 	0.5 	-37.4644
1.09375 	-1 	0.5 	-37.3762
1.10938 	-1 	0.5 	-37.2874
1.125 	-1 	0.5 	-37.2301
1.14062 	-1 	0.5 	-37.1475
1.15625 	-1 	0.5 	-37.0823
1.17188 	-1 	0.5 	-37.0201
1.1875 	-1 	0.5 	-36.9668
1.20312 	-1 	0.5 	-36.933
1.21875 	-1 	0.5 	-36.8948
1.23438 	-1 	0.5 	-36.8495
1.25 	-1 	0.5 	-36.7999
1.26562 	-1 	0.5 	-36.7613
1.28125 	-1 	0.5 	-36.7437
1.29688 	-1 	0.5 	-36.7355
1.3125 	-1 	0.5 	-36.7209
1.32812 	-1 	0.5 	-36.715
1.34375 	-1 	0.5 	-36.6997
1.35938 	-1 	0.5 	-36.682
1.375 	-1 	0.5 	-36.6802
1.39062 	-1 	0.5 	-36.6938
1.40625 	-1 	0.5 	-36.7085
1.42188 	-1 	0.5 	-36.728
1.4375 	-1 	0.5 	-36.745
1.45312 	-1 	0.5 	-36.7555
1.46875 	-1 	0.5 	-36.7748
1.48438 	-1 	0.5 	-36.8004
-0.5 	-0.984375 	0.5 	-32.8942
-0.484375 	-0.984375 	0.5 	-32.9821
-0.46875 	-0.984375 	0.5 	-33.069
-0.453125 	-0.984375 	0.5 	-33.1324
-0.4375 	-0.984375 	0.5 	-33.3001
-0.421875 	-0.984375 	0.5 	-33.4234
-0.40625 	-0.984375 	0.5 	-33.5337
-0.390625 	-0.984375 	0.5 	-33.6295
-0.375 	-0.984375 	0.5 	-33.7175
-0.359375 	-0.984375 	0.5 	-33.9927
-0.34375 	-0.984375 	0.5 	-34.1473
-0.328125 	-0.984375 	0.5 	-34.3241
-0.3125 	-0.984375 	0.5 	-34.4908
-0.296875 	-0.984375 	0.5 	-34.6428
-0.28125 	-0.984375 	0.5 	-34.7871
-0.265625 	-0.984375 	0.5 	-34.989
-0.25 	-0.984375 	0.5 	-35.2726
-0.234375 	-0.984375 	0.5 	-35.447
-0.21875 	-0.984375 	0.5 	-35.7291
-0.203125 	-0.984375 	0.5 	-35.8457
-0.1875 	-0.984375 	0.5 	-36.0229
-0.171875 	-0.984375 	0.5 	-36.2627
-0.15625 	-0.984375 	0.5 	-36.5074
-0.140625 	-0.984375 	0.5 	-36.7894
-0.125 	-0.984375 	0.5 	-37.0435
-0.109375 	-0.984375 	0.5 	-37.2902
-0.09375 	-0.984375 	0.5 	-37.5331
-0.078125 	-0.984375 	0.5 	-37.7767
-0.0625 	-0.984375 	0.5 	-37.9896
-0.046875 	-0.984375 	0.5 	-38.2037
-0.03125 	-0.984375 	0.5 	-38.4984
-0.015625 	-0.984375 	0.5 	-38.7526
0 	-0.984375 	0.5 	-39.0418
0.015625 	-0.984375 	0.5 	-39.2444
0.03125 	-0.984375 	0.5 	-39.3305
0.046875 	-0.984375 	0.5 	-39.6298
0.0625 	-0.984375 	0.5 	-39.9051
0.078125 	-0.984375 	0.5 	-40.1543
0.09375 	-0.984375 	0.5 	-40.3891
0.109375 	-0.984375 	0.5 	-40.5987
0.125 	-0.984375 	0.5 	-40.7987
0.140625 	-0.984375 	0.5 	-40.9894
0.15625 	-0.984375 	0.5 	-41.1912
0.171875 	-0.984375 	0.5 	-41.3419
0.1875 	-0.984375 	0.5 	-41.5004
0.203125 	-0.984375 	0.5 	-41.6676
0.21875 	-0.984375 	0.5 	-41.8107
0.234375 	-0.984375 	0.5 	-41.9384
0.25 	-0.984375 	0.5 	-42.0653
0.265625 	-0.984375 	0.5 	-42.2003
0.28125 	-0.984375 	0.5 	-42.3012
0.296875 	-0.984375 	0.5 	-42.3913
0.3125 	-0.984375 	0.5 	-42.4898
0.328125 	-0.984375 	0.5 	-42.5219
0.34375 	-0.984375 	0.5 	-42.5684
0.359375 	-0.984375 	0.5 	-42.5889
0.375 	-0.984375 	0.5 	-42.6125
0.390625 	-0.984375 	0.5 	-42.6507
0.40625 	-0.984375 	0.5 	-42.536
0.421875 	-0.984375 	0.5 	-42.5896
0.4375 	-0.984375 	0.5 	-42.5701
0.453125 	-0.984375 	0.5 	-42.5637
0.46875 	-0.984375 	0.5 	-42.5466
0.484375 	-0.984375 	0.5 	-42.377
0.5 	-0.984375 	0.5 	-42.3287
0.515625 	-0.984375 	0.5 	-42.2392
0.53125 	-0.984375 	0.5 	-42.3004
0.546875 	-0.984375 	0.5 	-42.0947
0.5625 	-0.984375 	0.5 	-41.9746
0.578125 	-0.984375 	0.5 	-41.8384
0.59375 	-0.984375 	0.5 	-41.7192
0.609375 	-0.984375 	0.5 	-41.6278
0.625 	-0.984375 	0.5 	-41.5287
0.640625 	-0.984375 	0.5 	-41.3378
0.65625 	-0.984375 	0.5 	-41.1775
0.671875 	-0.984375 	0.5 	-41.0429
0.6875 	-0.984375 	0.5 	-40.905
0.703125 	-0.984375 	0.5 	-40.7471
0.71875 	-0.984375 	0.5 	-40.5648
0.734375 	-0.984375 	0.5 	-40.3821
0.75 	-0.984375 	0.5 	-40.232
0.765625 	-0.984375 	0.5 	-40.0937
0.78125 	-0.984375 	0.5 	-39.9617
0.796875 	-0.984375 	0.5 	-39.7981
0.8125 	-0.984375 	0.5 	-39.6534
0.828125 	-0.984375 	0.5 	-39.4639
0.84375 	-0.984375 	0.5 	-39.2708
0.859375 	-0.984375 	0.5 	-39.1116
0.875 	-0.984375 	0.5 	-38.9735
0.890625 	-0.984375 	0.5 	-38.8355
0.90625 	-0.984375 	0.5 	-38.7164
0.921875 	-0.984375 	0.5 	-38.5735
0.9375 	-0.984375 	0.5 	-38.4226
0.953125 	-0.984375 	0.5 	-38.2816
0.96875 	-0.984375 	0.5 	-38.1272
0.984375 	-0.984375 	0.5 	-38.0045
1 	-0.984375 	0.5 	-37.8913
1.01562 	-0.984375 	0.5 	-37.7652
1.03125 	-0.984375 	0.5 	-37.6695
1.04688 	-0.984375 	0.5 	-37.5761
1.0625 	-0.984375 	0.5 	-37.4758
1.07812 	-0.984375 	0.5 	-37.3915
1.09375 	-0.984375 	0.5 	-37.2729
1.10938 	-0.984375 	0.5 	-37.1972
1.125 	-0.984375 	0.5 	-37.1259
1.14062 	-0.984375 	0.5 	-37.0546
1.15625 	-0.984375 	0.5 	-36.9895
1.17188 	-0.984375 	0.5 	-36.933
1.1875 	-0.984375 	0.5 	-36.8762
1.20312 	-0.984375 	0.5 	-36.8273
1.21875 	-0.984375 	0.5 	-36.7823
1.23438 	-0.984375 	0.5 	-36.7319
1.25 	-0.984375 	0.5 	-36.6799
1.26562 	-0.984375 	0.5 	-36.644
1.28125 	-0.984375 	0.5 	-36.6382
1.29688 	-0.984375 	0.5 	-36.6297
1.3125 	-0.984375 	0.5 	-36.6121
1.32812 	-0.984375 	0.5 	-36.601
1.34375 	-0.984375 	0.5 	-36.5944
1.35938 	-0.984375 	0.5 	-36.5886
1.375 	-0.984375 	0.5 	-36.5806
1.39062 	-0.984375 	0.5 	-36.59
1.40625 	-0.984375 	0.5 	-36.6101
1.42188 	-0.984375 	0.5 	-36.6294
1.4375 	-0.984375 	0.5 	-36.6451
1.45312 	-0.984375 	0.5 	-36.6561
1.46875 	-0.984375 	0.5 	-36.682
1.48438 	-0.984375 	0.5 	-36.708
-0.5 	-0.96875 	0.5 	-32.6925
-0.484375 	-0.96875 	0.5 	-32.7874
-0.46875 	-0.96875 	0.5 	-32.873
-0.453125 	-0.96875 	0.5 	-32.932
-0.4375 	-0.96875 	0.5 	-33.028
-0.421875 	-0.96875 	0.5 	-33.1981
-0.40625 	-0.96875 	0.5 	-33.3629
-0.390625 	-0.96875 	0.5 	-33.5016
-0.375 	-0.96875 	0.5 	-33.6287
-0.359375 	-0.96875 	0.5 	-33.7559
-0.34375 	-0.96875 	0.5 	-33.9643
-0.328125 	-0.96875 	0.5 	-34.1271
-0.3125 	-0.96875 	0.5 	-34.2907
-0.296875 	-0.96875 	0.5 	-34.4822
-0.28125 	-0.96875 	0.5 	-34.6725
-0.265625 	-0.96875 	0.5 	-34.9127
-0.25 	-0.96875 	0.5 	-35.1592
-0.234375 	-0.96875 	0.5 	-35.3463
-0.21875 	-0.96875 	0.5 	-35.5486
-0.203125 	-0.96875 	0.5 	-35.7001
-0.1875 	-0.96875 	0.5 	-35.909
-0.171875 	-0.96875 	0.5 	-36.1652
-0.15625 	-0.96875 	0.5 	-36.4116
-0.140625 	-0.96875 	0.5 	-36.7677
-0.125 	-0.96875 	0.5 	-36.9924
-0.109375 	-0.96875 	0.5 	-37.2523
-0.09375 	-0.96875 	0.5 	-37.4905
-0.078125 	-0.96875 	0.5 	-37.7802
-0.0625 	-0.96875 	0.5 	-38.0364
-0.046875 	-0.96875 	0.5 	-38.24
-0.03125 	-0.96875 	0.5 	-38.5346
-0.015625 	-0.96875 	0.5 	-38.7796
0 	-0.96875 	0.5 	-39.0537
0.015625 	-0.96875 	0.5 	-39.2777
0.03125 	-0.96875 	0.5 	-39.4663
0.046875 	-0.96875 	0.5 	-39.6924
0.0625 	-0.96875 	0.5 	-40.022
0.078125 	-0.96875 	0.5 	-40.3146
0.09375 	-0.96875 	0.5 	-40.5247
0.109375 	-0.96875 	0.5 	-40.7587
0.125 	-0.96875 	0.5 	-40.8902
0.140625 	-0.96875 	0.5 	-41.1451
0.15625 	-0.96875 	0.5 	-41.3676
0.171875 	-0.96875 	0.5 	-41.5499
0.1875 	-0.96875 	0.5 	-41.6998
0.203125 	-0.96875 	0.5 	-41.8772
0.21875 	-0.96875 	0.5 	-41.983
0.234375 	-0.96875 	0.5 	-42.1448
0.25 	-0.96875 	0.5 	-42.275
0.265625 	-0.96875 	0.5 	-42.4008
0.28125 	-0.96875 	0.5 	-42.5135
0.296875 	-0.96875 	0.5 	-42.6204
0.3125 	-0.96875 	0.5 	-42.6866
0.328125 	-0.96875 	0.5 	-42.751
0.34375 	-0.96875 	0.5 	-42.7717
0.359375 	-0.96875 	0.5 	-42.8062
0.375 	-0.96875 	0.5 	-42.8323
0.390625 	-0.96875 	0.5 	-42.8733
0.40625 	-0.96875 	0.5 	-42.8099
0.421875 	-0.96875 	0.5 	-42.7733
0.4375 	-0.96875 	0.5 	-42.7822
0.453125 	-0.96875 	0.5 	-42.7481
0.46875 	-0.96875 	0.5 	-42.7062
0.484375 	-0.96875 	0.5 	-42.5467
0.5 	-0.96875 	0.5 	-42.4882
0.515625 	-0.96875 	0.5 	-42.4431
0.53125 	-0.96875 	0.5 	-42.3994
0.546875 	-0.96875 	0.5 	-42.3097
0.5625 	-0.96875 	0.5 	-42.1549
0.578125 	-0.96875 	0.5 	-42.0171
0.59375 	-0.96875 	0.5 	-41.8807
0.609375 	-0.96875 	0.5 	-41.7648
0.625 	-0.96875 	0.5 	-41.6226
0.640625 	-0.96875 	0.5 	-41.4701
0.65625 	-0.96875 	0.5 	-41.3239
0.671875 	-0.96875 	0.5 	-41.1702
0.6875 	-0.96875 	0.5 	-40.9952
0.703125 	-0.96875 	0.5 	-40.8117
0.71875 	-0.96875 	0.5 	-40.6295
0.734375 	-0.96875 	0.5 	-40.4616
0.75 	-0.96875 	0.5 	-40.2899
0.765625 	-0.96875 	0.5 	-40.1232
0.78125 	-0.96875 	0.5 	-39.9772
0.796875 	-0.96875 	0.5 	-39.847
0.8125 	-0.96875 	0.5 	-39.6321
0.828125 	-0.96875 	0.5 	-39.4823
0.84375 	-0.96875 	0.5 	-39.2927
0.859375 	-0.96875 	0.5 	-39.0983
0.875 	-0.96875 	0.5 	-38.9623
0.890625 	-0.96875 	0.5 	-38.821
0.90625 	-0.96875 	0.5 	-38.6782
0.921875 	-0.96875 	0.5 	-38.5284
0.9375 	-0.96875 	0.5 	-38.3761
0.953125 	-0.96875 	0.5 	-38.2183
0.96875 	-0.96875 	0.5 	-38.0707
0.984375 	-0.96875 	0.5 	-37.9442
1 	-0.96875 	0.5 	-37.7924
1.01562 	-0.96875 	0.5 	-37.6743
1.03125 	-0.96875 	0.5 	-37.5578
1.04688 	-0.96875 	0.5 	-37.4688
1.0625 	-0.96875 	0.5 	-37.3669
1.07812 	-0.96875 	0.5 	-37.2566
1.09375 	-0.96875 	0.5 	-37.1642
1.10938 	-0.96875 	0.5 	-37.0881
1.125 	-0.96875 	0.5 	-37.0304
1.14062 	-0.96875 	0.5 	-36.9417
1.15625 	-0.96875 	0.5 	-36.8669
1.17188 	-0.96875 	0.5 	-36.8121
1.1875 	-0.96875 	0.5 	-36.7605
1.20312 	-0.96875 	0.5 	-36.7125
1.21875 	-0.96875 	0.5 	-36.6575
1.23438 	-0.96875 	0.5 	-36.6066
1.25 	-0.96875 	0.5 	-36.5593
1.26562 	-0.96875 	0.5 	-36.5379
1.28125 	-0.96875 	0.5 	-36.5244
1.29688 	-0.96875 	0.5 	-36.5176
1.3125 	-0.96875 	0.5 	-36.5043
1.32812 	-0.96875 	0.5 	-36.4927
1.34375 	-0.96875 	0.5 	-36.4867
1.35938 	-0.96875 	0.5 	-36.476
1.375 	-0.96875 	0.5 	-36.4661
1.39062 	-0.96875 	0.5 	-36.4901
1.40625 	-0.96875 	0.5 	-36.5212
1.42188 	-0.96875 	0.5 	-36.5306
1.4375 	-0.96875 	0.5 	-36.5437
1.45312 	-0.96875 	0.5 	-36.5636
1.46875 	-0.96875 	0.5 	-36.5896
1.48438 	-0.96875 	0.5 	-36.6163
-0.5 	-0.953125 	0.5 	-32.4818
-0.484375 	-0.953125 	0.5 	-32.5845
-0.46875 	-0.953125 	0.5 	-32.6759
-0.453125 	-0.953125 	0.5 	-32.7317
-0.4375 	-0.953125 	0.5 	-32.8774
-0.421875 	-0.953125 	0.5 	-33.0164
-0.40625 	-0.953125 	0.5 	-33.1745
-0.390625 	-0.953125 	0.5 	-33.3573
-0.375 	-0.953125 	0.5 	-33.5075
-0.359375 	-0.953125 	0.5 	-33.6347
-0.34375 	-0.953125 	0.5 	-33.7814
-0.328125 	-0.953125 	0.5 	-33.9525
-0.3125 	-0.953125 	0.5 	-34.1459
-0.296875 	-0.953125 	0.5 	-34.281
-0.28125 	-0.953125 	0.5 	-34.5192
-0.265625 	-0.953125 	0.5 	-34.7059
-0.25 	-0.953125 	0.5 	-34.9574
-0.234375 	-0.953125 	0.5 	-35.2088
-0.21875 	-0.953125 	0.5 	-35.4249
-0.203125 	-0.953125 	0.5 	-35.6415
-0.1875 	-0.953125 	0.5 	-35.8567
-0.171875 	-0.953125 	0.5 	-36.0719
-0.15625 	-0.953125 	0.5 	-36.3496
-0.140625 	-0.953125 	0.5 	-36.6573
-0.125 	-0.953125 	0.5 	-36.9537
-0.109375 	-0.953125 	0.5 	-37.1929
-0.09375 	-0.953125 	0.5 	-37.5097
-0.078125 	-0.953125 	0.5 	-37.773
-0.0625 	-0.953125 	0.5 	-38.0618
-0.046875 	-0.953125 	0.5 	-38.3316
-0.03125 	-0.953125 	0.5 	-38.5746
-0.015625 	-0.953125 	0.5 	-38.8258
0 	-0.953125 	0.5 	-39.0754
0.015625 	-0.953125 	0.5 	-39.3569
0.03125 	-0.953125 	0.5 	-39.5719
0.046875 	-0.953125 	0.5 	-39.7881
0.0625 	-0.953125 	0.5 	-40.1369
0.078125 	-0.953125 	0.5 	-40.4223
0.09375 	-0.953125 	0.5 	-40.6532
0.109375 	-0.953125 	0.5 	-40.8884
0.125 	-0.953125 	0.5 	-41.1155
0.140625 	-0.953125 	0.5 	-41.3784
0.15625 	-0.953125 	0.5 	-41.5538
0.171875 	-0.953125 	0.5 	-41.7617
0.1875 	-0.953125 	0.5 	-41.9198
0.203125 	-0.953125 	0.5 	-42.0662
0.21875 	-0.953125 	0.5 	-42.2083
0.234375 	-0.953125 	0.5 	-42.3526
0.25 	-0.953125 	0.5 	-42.5005
0.265625 	-0.953125 	0.5 	-42.6513
0.28125 	-0.953125 	0.5 	-42.768
0.296875 	-0.953125 	0.5 	-42.8561
0.3125 	-0.953125 	0.5 	-42.9049
0.328125 	-0.953125 	0.5 	-42.9765
0.34375 	-0.953125 	0.5 	-42.9987
0.359375 	-0.953125 	0.5 	-43.0205
0.375 	-0.953125 	0.5 	-43.0516
0.390625 	-0.953125 	0.5 	-43.086
0.40625 	-0.953125 	0.5 	-43.1081
0.421875 	-0.953125 	0.5 	-43.0737
0.4375 	-0.953125 	0.5 	-43.0421
0.453125 	-0.953125 	0.5 	-42.9515
0.46875 	-0.953125 	0.5 	-42.8544
0.484375 	-0.953125 	0.5 	-42.7955
0.5 	-0.953125 	0.5 	-42.7623
0.515625 	-0.953125 	0.5 	-42.7005
0.53125 	-0.953125 	0.5 	-42.5697
0.546875 	-0.953125 	0.5 	-42.4862
0.5625 	-0.953125 	0.5 	-42.3373
0.578125 	-0.953125 	0.5 	-42.1956
0.59375 	-0.953125 	0.5 	-42.0387
0.609375 	-0.953125 	0.5 	-41.8834
0.625 	-0.953125 	0.5 	-41.7129
0.640625 	-0.953125 	0.5 	-41.5815
0.65625 	-0.953125 	0.5 	-41.4182
0.671875 	-0.953125 	0.5 	-41.2728
0.6875 	-0.953125 	0.5 	-41.0968
0.703125 	-0.953125 	0.5 	-40.9024
0.71875 	-0.953125 	0.5 	-40.7048
0.734375 	-0.953125 	0.5 	-40.4821
0.75 	-0.953125 	0.5 	-40.3625
0.765625 	-0.953125 	0.5 	-40.1545
0.78125 	-0.953125 	0.5 	-39.961
0.796875 	-0.953125 	0.5 	-39.7938
0.8125 	-0.953125 	0.5 	-39.6228
0.828125 	-0.953125 	0.5 	-39.4477
0.84375 	-0.953125 	0.5 	-39.2725
0.859375 	-0.953125 	0.5 	-39.0803
0.875 	-0.953125 	0.5 	-38.9291
0.890625 	-0.953125 	0.5 	-38.7799
0.90625 	-0.953125 	0.5 	-38.6281
0.921875 	-0.953125 	0.5 	-38.4833
0.9375 	-0.953125 	0.5 	-38.3283
0.953125 	-0.953125 	0.5 	-38.1477
0.96875 	-0.953125 	0.5 	-37.9906
0.984375 	-0.953125 	0.5 	-37.8542
1 	-0.953125 	0.5 	-37.7027
1.01562 	-0.953125 	0.5 	-37.5834
1.03125 	-0.953125 	0.5 	-37.4872
1.04688 	-0.953125 	0.5 	-37.4107
1.0625 	-0.953125 	0.5 	-37.2693
1.07812 	-0.953125 	0.5 	-37.1258
1.09375 	-0.953125 	0.5 	-37.0408
1.10938 	-0.953125 	0.5 	-36.9458
1.125 	-0.953125 	0.5 	-36.9063
1.14062 	-0.953125 	0.5 	-36.8392
1.15625 	-0.953125 	0.5 	-36.7603
1.17188 	-0.953125 	0.5 	-36.6878
1.1875 	-0.953125 	0.5 	-36.64
1.20312 	-0.953125 	0.5 	-36.5938
1.21875 	-0.953125 	0.5 	-36.5398
1.23438 	-0.953125 	0.5 	-36.4885
1.25 	-0.953125 	0.5 	-36.437
1.26562 	-0.953125 	0.5 	-36.4091
1.28125 	-0.953125 	0.5 	-36.4271
1.29688 	-0.953125 	0.5 	-36.4151
1.3125 	-0.953125 	0.5 	-36.3966
1.32812 	-0.953125 	0.5 	-36.3786
1.34375 	-0.953125 	0.5 	-36.3601
1.35938 	-0.953125 	0.5 	-36.3473
1.375 	-0.953125 	0.5 	-36.3568
1.39062 	-0.953125 	0.5 	-36.3742
1.40625 	-0.953125 	0.5 	-36.417
1.42188 	-0.953125 	0.5 	-36.4319
1.4375 	-0.953125 	0.5 	-36.4383
1.45312 	-0.953125 	0.5 	-36.4577
1.46875 	-0.953125 	0.5 	-36.4959
1.48438 	-0.953125 	0.5 	-36.5249
-0.5 	-0.9375 	0.5 	-32.3353
-0.484375 	-0.9375 	0.5 	-32.3991
-0.46875 	-0.9375 	0.5 	-32.4765
-0.453125 	-0.9375 	0.5 	-32.5817
-0.4375 	-0.9375 	0.5 	-32.6138
-0.421875 	-0.9375 	0.5 	-32.7635
-0.40625 	-0.9375 	0.5 	-33.0427
-0.390625 	-0.9375 	0.5 	-33.0977
-0.375 	-0.9375 	0.5 	-33.3779
-0.359375 	-0.9375 	0.5 	-33.5162
-0.34375 	-0.9375 	0.5 	-33.623
-0.328125 	-0.9375 	0.5 	-33.7982
-0.3125 	-0.9375 	0.5 	-33.9783
-0.296875 	-0.9375 	0.5 	-34.1339
-0.28125 	-0.9375 	0.5 	-34.3665
-0.265625 	-0.9375 	0.5 	-34.603
-0.25 	-0.9375 	0.5 	-34.8442
-0.234375 	-0.9375 	0.5 	-35.0626
-0.21875 	-0.9375 	0.5 	-35.3215
-0.203125 	-0.9375 	0.5 	-35.5365
-0.1875 	-0.9375 	0.5 	-35.7518
-0.171875 	-0.9375 	0.5 	-36.0145
-0.15625 	-0.9375 	0.5 	-36.2956
-0.140625 	-0.9375 	0.5 	-36.6405
-0.125 	-0.9375 	0.5 	-36.891
-0.109375 	-0.9375 	0.5 	-37.1648
-0.09375 	-0.9375 	0.5 	-37.4975
-0.078125 	-0.9375 	0.5 	-37.7729
-0.0625 	-0.9375 	0.5 	-38.0549
-0.046875 	-0.9375 	0.5 	-38.3339
-0.03125 	-0.9375 	0.5 	-38.6435
-0.015625 	-0.9375 	0.5 	-38.8943
0 	-0.9375 	0.5 	-39.1401
0.015625 	-0.9375 	0.5 	-39.4296
0.03125 	-0.9375 	0.5 	-39.6481
0.046875 	-0.9375 	0.5 	-39.8957
0.0625 	-0.9375 	0.5 	-40.2441
0.078125 	-0.9375 	0.5 	-40.5443
0.09375 	-0.9375 	0.5 	-40.8186
0.109375 	-0.9375 	0.5 	-41.061
0.125 	-0.9375 	0.5 	-41.2935
0.140625 	-0.9375 	0.5 	-41.519
0.15625 	-0.9375 	0.5 	-41.7399
0.171875 	-0.9375 	0.5 	-41.9208
0.1875 	-0.9375 	0.5 	-42.1276
0.203125 	-0.9375 	0.5 	-42.3214
0.21875 	-0.9375 	0.5 	-42.4573
0.234375 	-0.9375 	0.5 	-42.6266
0.25 	-0.9375 	0.5 	-42.7456
0.265625 	-0.9375 	0.5 	-42.8891
0.28125 	-0.9375 	0.5 	-43.0061
0.296875 	-0.9375 	0.5 	-43.0928
0.3125 	-0.9375 	0.5 	-43.146
0.328125 	-0.9375 	0.5 	-43.2348
0.34375 	-0.9375 	0.5 	-43.2957
0.359375 	-0.9375 	0.5 	-43.3084
0.375 	-0.9375 	0.5 	-43.3134
0.390625 	-0.9375 	0.5 	-43.3497
0.40625 	-0.9375 	0.5 	-43.3243
0.421875 	-0.9375 	0.5 	-43.3189
0.4375 	-0.9375 	0.5 	-43.3061
0.453125 	-0.9375 	0.5 	-43.2258
0.46875 	-0.9375 	0.5 	-43.1142
0.484375 	-0.9375 	0.5 	-43.0775
0.5 	-0.9375 	0.5 	-42.9854
0.515625 	-0.9375 	0.5 	-42.9344
0.53125 	-0.9375 	0.5 	-42.7835
0.546875 	-0.9375 	0.5 	-42.6687
0.5625 	-0.9375 	0.5 	-42.4978
0.578125 	-0.9375 	0.5 	-42.333
0.59375 	-0.9375 	0.5 	-42.2103
0.609375 	-0.9375 	0.5 	-42.0015
0.625 	-0.9375 	0.5 	-41.8393
0.640625 	-0.9375 	0.5 	-41.6933
0.65625 	-0.9375 	0.5 	-41.5267
0.671875 	-0.9375 	0.5 	-41.3605
0.6875 	-0.9375 	0.5 	-41.2037
0.703125 	-0.9375 	0.5 	-41.0036
0.71875 	-0.9375 	0.5 	-40.7823
0.734375 	-0.9375 	0.5 	-40.612
0.75 	-0.9375 	0.5 	-40.372
0.765625 	-0.9375 	0.5 	-40.1832
0.78125 	-0.9375 	0.5 	-40.0144
0.796875 	-0.9375 	0.5 	-39.8528
0.8125 	-0.9375 	0.5 	-39.6753
0.828125 	-0.9375 	0.5 	-39.4492
0.84375 	-0.9375 	0.5 	-39.2742
0.859375 	-0.9375 	0.5 	-39.0283
0.875 	-0.9375 	0.5 	-38.8876
0.890625 	-0.9375 	0.5 	-38.7496
0.90625 	-0.9375 	0.5 	-38.5934
0.921875 	-0.9375 	0.5 	-38.4177
0.9375 	-0.9375 	0.5 	-38.2174
0.953125 	-0.9375 	0.5 	-38.0371
0.96875 	-0.9375 	0.5 	-37.8988
0.984375 	-0.9375 	0.5 	-37.7523
1 	-0.9375 	0.5 	-37.626
1.01562 	-0.9375 	0.5 	-37.5086
1.03125 	-0.9375 	0.5 	-37.4133
1.04688 	-0.9375 	0.5 	-37.3073
1.0625 	-0.9375 	0.5 	-37.1945
1.07812 	-0.9375 	0.5 	-37.0401
1.09375 	-0.9375 	0.5 	-36.9353
1.10938 	-0.9375 	0.5 	-36.8759
1.125 	-0.9375 	0.5 	-36.7867
1.14062 	-0.9375 	0.5 	-36.6951
1.15625 	-0.9375 	0.5 	-36.6242
1.17188 	-0.9375 	0.5 	-36.5635
1.1875 	-0.9375 	0.5 	-36.5159
1.20312 	-0.9375 	0.5 	-36.4681
1.21875 	-0.9375 	0.5 	-36.4202
1.23438 	-0.9375 	0.5 	-36.3725
1.25 	-0.9375 	0.5 	-36.3337
1.26562 	-0.9375 	0.5 	-36.295
1.28125 	-0.9375 	0.5 	-36.2835
1.29688 	-0.9375 	0.5 	-36.2627
1.3125 	-0.9375 	0.5 	-36.2508
1.32812 	-0.9375 	0.5 	-36.2643
1.34375 	-0.9375 	0.5 	-36.2513
1.35938 	-0.9375 	0.5 	-36.2363
1.375 	-0.9375 	0.5 	-36.2486
1.39062 	-0.9375 	0.5 	-36.266
1.40625 	-0.9375 	0.5 	-36.2873
1.42188 	-0.9375 	0.5 	-36.3086
1.4375 	-0.9375 	0.5 	-36.3371
1.45312 	-0.9375 	0.5 	-36.3431
1.46875 	-0.9375 	0.5 	-36.3789
1.48438 	-0.9375 	0.5 	-36.4179
-0.5 	-0.921875 	0.5 	-32.0509
-0.484375 	-0.921875 	0.5 	-32.1705
-0.46875 	-0.921875 	0.5 	-32.2633
-0.453125 	-0.921875 	0.5 	-32.4688
-0.4375 	-0.921875 	0.5 	-32.5716
-0.421875 	-0.921875 	0.5 	-32.6407
-0.40625 	-0.921875 	0.5 	-32.8188
-0.390625 	-0.921875 	0.5 	-32.9952
-0.375 	-0.921875 	0.5 	-33.1079
-0.359375 	-0.921875 	0.5 	-33.2214
-0.34375 	-0.921875 	0.5 	-33.4002
-0.328125 	-0.921875 	0.5 	-33.6
-0.3125 	-0.921875 	0.5 	-33.7719
-0.296875 	-0.921875 	0.5 	-33.9973
-0.28125 	-0.921875 	0.5 	-34.2238
-0.265625 	-0.921875 	0.5 	-34.4686
-0.25 	-0.921875 	0.5 	-34.6744
-0.234375 	-0.921875 	0.5 	-34.9512
-0.21875 	-0.921875 	0.5 	-35.2136
-0.203125 	-0.921875 	0.5 	-35.4319
-0.1875 	-0.921875 	0.5 	-35.66
-0.171875 	-0.921875 	0.5 	-35.98
-0.15625 	-0.921875 	0.5 	-36.2311
-0.140625 	-0.921875 	0.5 	-36.5439
-0.125 	-0.921875 	0.5 	-36.8136
-0.109375 	-0.921875 	0.5 	-37.1205
-0.09375 	-0.921875 	0.5 	-37.4338
-0.078125 	-0.921875 	0.5 	-37.7674
-0.0625 	-0.921875 	0.5 	-38.0523
-0.046875 	-0.921875 	0.5 	-38.3603
-0.03125 	-0.921875 	0.5 	-38.6829
-0.015625 	-0.921875 	0.5 	-38.9861
0 	-0.921875 	0.5 	-39.26
0.015625 	-0.921875 	0.5 	-39.5091
0.03125 	-0.921875 	0.5 	-39.7051
0.046875 	-0.921875 	0.5 	-40.0361
0.0625 	-0.921875 	0.5 	-40.4138
0.078125 	-0.921875 	0.5 	-40.6717
0.09375 	-0.921875 	0.5 	-40.9604
0.109375 	-0.921875 	0.5 	-41.2239
0.125 	-0.921875 	0.5 	-41.4593
0.140625 	-0.921875 	0.5 	-41.6891
0.15625 	-0.921875 	0.5 	-41.9348
0.171875 	-0.921875 	0.5 	-42.1506
0.1875 	-0.921875 	0.5 	-42.3464
0.203125 	-0.921875 	0.5 	-42.5772
0.21875 	-0.921875 	0.5 	-42.7464
0.234375 	-0.921875 	0.5 	-42.8848
0.25 	-0.921875 	0.5 	-43.017
0.265625 	-0.921875 	0.5 	-43.127
0.28125 	-0.921875 	0.5 	-43.2548
0.296875 	-0.921875 	0.5 	-43.3352
0.3125 	-0.921875 	0.5 	-43.4177
0.328125 	-0.921875 	0.5 	-43.5042
0.34375 	-0.921875 	0.5 	-43.5802
0.359375 	-0.921875 	0.5 	-43.5923
0.375 	-0.921875 	0.5 	-43.5938
0.390625 	-0.921875 	0.5 	-43.588
0.40625 	-0.921875 	0.5 	-43.5698
0.421875 	-0.921875 	0.5 	-43.5628
0.4375 	-0.921875 	0.5 	-43.515
0.453125 	-0.921875 	0.5 	-43.4409
0.46875 	-0.921875 	0.5 	-43.3693
0.484375 	-0.921875 	0.5 	-43.291
0.5 	-0.921875 	0.5 	-43.2194
0.515625 	-0.921875 	0.5 	-43.1144
0.53125 	-0.921875 	0.5 	-43.0121
0.546875 	-0.921875 	0.5 	-42.8754
0.5625 	-0.921875 	0.5 	-42.6974
0.578125 	-0.921875 	0.5 	-42.5144
0.59375 	-0.921875 	0.5 	-42.3358
0.609375 	-0.921875 	0.5 	-42.1569
0.625 	-0.921875 	0.5 	-42.0012
0.640625 	-0.921875 	0.5 	-41.8684
0.65625 	-0.921875 	0.5 	-41.7146
0.671875 	-0.921875 	0.5 	-41.4729
0.6875 	-0.921875 	0.5 	-41.3184
0.703125 	-0.921875 	0.5 	-41.0973
0.71875 	-0.921875 	0.5 	-40.896
0.734375 	-0.921875 	0.5 	-40.6598
0.75 	-0.921875 	0.5 	-40.4624
0.765625 	-0.921875 	0.5 	-40.2653
0.78125 	-0.921875 	0.5 	-40.0659
0.796875 	-0.921875 	0.5 	-39.8681
0.8125 	-0.921875 	0.5 	-39.6687
0.828125 	-0.921875 	0.5 	-39.4705
0.84375 	-0.921875 	0.5 	-39.2541
0.859375 	-0.921875 	0.5 	-39.0607
0.875 	-0.921875 	0.5 	-38.8673
0.890625 	-0.921875 	0.5 	-38.6863
0.90625 	-0.921875 	0.5 	-38.5285
0.921875 	-0.921875 	0.5 	-38.3415
0.9375 	-0.921875 	0.5 	-38.1633
0.953125 	-0.921875 	0.5 	-37.9609
0.96875 	-0.921875 	0.5 	-37.8134
0.984375 	-0.921875 	0.5 	-37.6881
1 	-0.921875 	0.5 	-37.5712
1.01562 	-0.921875 	0.5 	-37.4253
1.03125 	-0.921875 	0.5 	-37.3187
1.04688 	-0.921875 	0.5 	-37.221
1.0625 	-0.921875 	0.5 	-37.0917
1.07812 	-0.921875 	0.5 	-36.9383
1.09375 	-0.921875 	0.5 	-36.85
1.10938 	-0.921875 	0.5 	-36.778
1.125 	-0.921875 	0.5 	-36.6753
1.14062 	-0.921875 	0.5 	-36.5553
1.15625 	-0.921875 	0.5 	-36.5059
1.17188 	-0.921875 	0.5 	-36.4214
1.1875 	-0.921875 	0.5 	-36.3788
1.20312 	-0.921875 	0.5 	-36.3318
1.21875 	-0.921875 	0.5 	-36.2864
1.23438 	-0.921875 	0.5 	-36.2451
1.25 	-0.921875 	0.5 	-36.2079
1.26562 	-0.921875 	0.5 	-36.1718
1.28125 	-0.921875 	0.5 	-36.1196
1.29688 	-0.921875 	0.5 	-36.1233
1.3125 	-0.921875 	0.5 	-36.1161
1.32812 	-0.921875 	0.5 	-36.1306
1.34375 	-0.921875 	0.5 	-36.1355
1.35938 	-0.921875 	0.5 	-36.1252
1.375 	-0.921875 	0.5 	-36.1411
1.39062 	-0.921875 	0.5 	-36.1574
1.40625 	-0.921875 	0.5 	-36.168
1.42188 	-0.921875 	0.5 	-36.1877
1.4375 	-0.921875 	0.5 	-36.2159
1.45312 	-0.921875 	0.5 	-36.2285
1.46875 	-0.921875 	0.5 	-36.2671
1.48438 	-0.921875 	0.5 	-36.3188
-0.5 	-0.90625 	0.5 	-31.8813
-0.484375 	-0.90625 	0.5 	-31.9521
-0.46875 	-0.90625 	0.5 	-32.0782
-0.453125 	-0.90625 	0.5 	-32.2176
-0.4375 	-0.90625 	0.5 	-32.4969
-0.421875 	-0.90625 	0.5 	-32.3837
-0.40625 	-0.90625 	0.5 	-32.3921
-0.390625 	-0.90625 	0.5 	-32.5993
-0.375 	-0.90625 	0.5 	-32.8333
-0.359375 	-0.90625 	0.5 	-33.0231
-0.34375 	-0.90625 	0.5 	-33.2086
-0.328125 	-0.90625 	0.5 	-33.3969
-0.3125 	-0.90625 	0.5 	-33.5931
-0.296875 	-0.90625 	0.5 	-33.7872
-0.28125 	-0.90625 	0.5 	-34.0057
-0.265625 	-0.90625 	0.5 	-34.2736
-0.25 	-0.90625 	0.5 	-34.4953
-0.234375 	-0.90625 	0.5 	-34.7981
-0.21875 	-0.90625 	0.5 	-35.0555
-0.203125 	-0.90625 	0.5 	-35.3129
-0.1875 	-0.90625 	0.5 	-35.5957
-0.171875 	-0.90625 	0.5 	-35.8813
-0.15625 	-0.90625 	0.5 	-36.1667
-0.140625 	-0.90625 	0.5 	-36.4632
-0.125 	-0.90625 	0.5 	-36.7741
-0.109375 	-0.90625 	0.5 	-37.083
-0.09375 	-0.90625 	0.5 	-37.3986
-0.078125 	-0.90625 	0.5 	-37.7155
-0.0625 	-0.90625 	0.5 	-38.0595
-0.046875 	-0.90625 	0.5 	-38.3992
-0.03125 	-0.90625 	0.5 	-38.7173
-0.015625 	-0.90625 	0.5 	-39.0151
0 	-0.90625 	0.5 	-39.2916
0.015625 	-0.90625 	0.5 	-39.6388
0.03125 	-0.90625 	0.5 	-39.9703
0.046875 	-0.90625 	0.5 	-40.253
0.0625 	-0.90625 	0.5 	-40.5336
0.078125 	-0.90625 	0.5 	-40.8116
0.09375 	-0.90625 	0.5 	-41.0895
0.109375 	-0.90625 	0.5 	-41.3987
0.125 	-0.90625 	0.5 	-41.65
0.140625 	-0.90625 	0.5 	-41.9123
0.15625 	-0.90625 	0.5 	-42.1569
0.171875 	-0.90625 	0.5 	-42.3415
0.1875 	-0.90625 	0.5 	-42.5515
0.203125 	-0.90625 	0.5 	-42.749
0.21875 	-0.90625 	0.5 	-42.9915
0.234375 	-0.90625 	0.5 	-43.1841
0.25 	-0.90625 	0.5 	-43.2674
0.265625 	-0.90625 	0.5 	-43.4176
0.28125 	-0.90625 	0.5 	-43.543
0.296875 	-0.90625 	0.5 	-43.6295
0.3125 	-0.90625 	0.5 	-43.7172
0.328125 	-0.90625 	0.5 	-43.8336
0.34375 	-0.90625 	0.5 	-43.8903
0.359375 	-0.90625 	0.5 	-43.8935
0.375 	-0.90625 	0.5 	-43.8969
0.390625 	-0.90625 	0.5 	-43.9019
0.40625 	-0.90625 	0.5 	-43.8755
0.421875 	-0.90625 	0.5 	-43.8305
0.4375 	-0.90625 	0.5 	-43.7692
0.453125 	-0.90625 	0.5 	-43.7255
0.46875 	-0.90625 	0.5 	-43.601
0.484375 	-0.90625 	0.5 	-43.5312
0.5 	-0.90625 	0.5 	-43.4803
0.515625 	-0.90625 	0.5 	-43.414
0.53125 	-0.90625 	0.5 	-43.2229
0.546875 	-0.90625 	0.5 	-43.0771
0.5625 	-0.90625 	0.5 	-42.8988
0.578125 	-0.90625 	0.5 	-42.7291
0.59375 	-0.90625 	0.5 	-42.5227
0.609375 	-0.90625 	0.5 	-42.3326
0.625 	-0.90625 	0.5 	-42.171
0.640625 	-0.90625 	0.5 	-41.9917
0.65625 	-0.90625 	0.5 	-41.8096
0.671875 	-0.90625 	0.5 	-41.6066
0.6875 	-0.90625 	0.5 	-41.3876
0.703125 	-0.90625 	0.5 	-41.2057
0.71875 	-0.90625 	0.5 	-40.9528
0.734375 	-0.90625 	0.5 	-40.7162
0.75 	-0.90625 	0.5 	-40.5116
0.765625 	-0.90625 	0.5 	-40.3046
0.78125 	-0.90625 	0.5 	-40.1008
0.796875 	-0.90625 	0.5 	-39.8741
0.8125 	-0.90625 	0.5 	-39.7117
0.828125 	-0.90625 	0.5 	-39.457
0.84375 	-0.90625 	0.5 	-39.2251
0.859375 	-0.90625 	0.5 	-39.0048
0.875 	-0.90625 	0.5 	-38.8449
0.890625 	-0.90625 	0.5 	-38.6483
0.90625 	-0.90625 	0.5 	-38.4769
0.921875 	-0.90625 	0.5 	-38.2593
0.9375 	-0.90625 	0.5 	-38.0776
0.953125 	-0.90625 	0.5 	-37.8878
0.96875 	-0.90625 	0.5 	-37.7616
0.984375 	-0.90625 	0.5 	-37.6388
1 	-0.90625 	0.5 	-37.479
1.01562 	-0.90625 	0.5 	-37.3613
1.03125 	-0.90625 	0.5 	-37.194
1.04688 	-0.90625 	0.5 	-37.1024
1.0625 	-0.90625 	0.5 	-36.947
1.07812 	-0.90625 	0.5 	-36.8122
1.09375 	-0.90625 	0.5 	-36.6957
1.10938 	-0.90625 	0.5 	-36.6171
1.125 	-0.90625 	0.5 	-36.5521
1.14062 	-0.90625 	0.5 	-36.4641
1.15625 	-0.90625 	0.5 	-36.3698
1.17188 	-0.90625 	0.5 	-36.2901
1.1875 	-0.90625 	0.5 	-36.2332
1.20312 	-0.90625 	0.5 	-36.1905
1.21875 	-0.90625 	0.5 	-36.1609
1.23438 	-0.90625 	0.5 	-36.1196
1.25 	-0.90625 	0.5 	-36.0717
1.26562 	-0.90625 	0.5 	-36.0324
1.28125 	-0.90625 	0.5 	-35.9824
1.29688 	-0.90625 	0.5 	-35.9926
1.3125 	-0.90625 	0.5 	-35.9711
1.32812 	-0.90625 	0.5 	-35.9668
1.34375 	-0.90625 	0.5 	-35.9718
1.35938 	-0.90625 	0.5 	-35.9839
1.375 	-0.90625 	0.5 	-36.0157
1.39062 	-0.90625 	0.5 	-36.0389
1.40625 	-0.90625 	0.5 	-36.036
1.42188 	-0.90625 	0.5 	-36.0349
1.4375 	-0.90625 	0.5 	-36.0747
1.45312 	-0.90625 	0.5 	-36.1167
1.46875 	-0.90625 	0.5 	-36.1655
1.48438 	-0.90625 	0.5 	-36.2132
-0.5 	-0.890625 	0.5 	-31.6556
-0.484375 	-0.890625 	0.5 	-31.7326
-0.46875 	-0.890625 	0.5 	-31.9276
-0.453125 	-0.890625 	0.5 	-32.1243
-0.4375 	-0.890625 	0.5 	-32.0741
-0.421875 	-0.890625 	0.5 	-32.0803
-0.40625 	-0.890625 	0.5 	-32.306
-0.390625 	-0.890625 	0.5 	-32.4228
-0.375 	-0.890625 	0.5 	-32.6495
-0.359375 	-0.890625 	0.5 	-32.8127
-0.34375 	-0.890625 	0.5 	-32.9969
-0.328125 	-0.890625 	0.5 	-33.1986
-0.3125 	-0.890625 	0.5 	-33.3944
-0.296875 	-0.890625 	0.5 	-33.6146
-0.28125 	-0.890625 	0.5 	-33.8458
-0.265625 	-0.890625 	0.5 	-34.077
-0.25 	-0.890625 	0.5 	-34.3512
-0.234375 	-0.890625 	0.5 	-34.6343
-0.21875 	-0.890625 	0.5 	-34.9147
-0.203125 	-0.890625 	0.5 	-35.1638
-0.1875 	-0.890625 	0.5 	-35.4771
-0.171875 	-0.890625 	0.5 	-35.7535
-0.15625 	-0.890625 	0.5 	-36.0525
-0.140625 	-0.890625 	0.5 	-36.3898
-0.125 	-0.890625 	0.5 	-36.6776
-0.109375 	-0.890625 	0.5 	-37.0426