-0.5 	-1 	0.5 	39.6279 	0.203928 	-3.8023e-19
-0.484375 	-1 	0.5 	39.6247 	0.201679 	-8.47402e-20
-0.46875 	-1 	0.5 	39.6218 	0.198985 	6.2403e-19
-0.453125 	-1 	0.5 	39.6187 	0.196481 	1.06571e-18
-0.4375 	-1 	0.5 	39.6161 	0.193764 	2.95351e-18
-0.421875 	-1 	0.5 	39.6129 	0.191032 	1.8441e-18
-0.40625 	-1 	0.5 	39.6096 	0.188309 	-2.39898e-19
-0.390625 	-1 	0.5 	39.6068 	0.185686 	-1.19266e-18
-0.375 	-1 	0.5 	39.6039 	0.183177 	-2.75533e-18
-0.359375 	-1 	0.5 	39.6012 	0.180088 	-2.34151e-18
-0.34375 	-1 	0.5 	39.5985 	0.176822 	-1.39801e-18
-0.328125 	-1 	0.5 	39.5958 	0.173971 	-9.17343e-19
-0.3125 	-1 	0.5 	39.5932 	0.171271 	1.91772e-18
-0.296875 	-1 	0.5 	39.5906 	0.168388 	1.77275e-18
-0.28125 	-1 	0.5 	39.5882 	0.165468 	3.49086e-19
-0.265625 	-1 	0.5 	39.5857 	0.162483 	5.65284e-19
-0.25 	-1 	0.5 	39.584 	0.159044 	6.00184e-20
-0.234375 	-1 	0.5 	39.5814 	0.155926 	2.15627e-19
-0.21875 	-1 	0.5 	39.5796 	0.152483 	1.12858e-20
-0.203125 	-1 	0.5 	39.5776 	0.149464 	1.3457e-19
-0.1875 	-1 	0.5 	39.5755 	0.14621 	6.61958e-19
-0.171875 	-1 	0.5 	39.5735 	0.142967 	-2.07085e-18
-0.15625 	-1 	0.5 	39.5714 	0.139541 	-4.79537e-18
-0.140625 	-1 	0.5 	39.5697 	0.136882 	-6.30609e-19
-0.125 	-1 	0.5 	39.5673 	0.133036 	-5.48161e-20
-0.109375 	-1 	0.5 	39.5657 	0.130087 	-2.57932e-19
-0.09375 	-1 	0.5 	39.564 	0.126977 	-2.0951e-19
-0.078125 	-1 	0.5 	39.5623 	0.123613 	1.03414e-19
-0.0625 	-1 	0.5 	39.5606 	0.120329 	5.47863e-19
-0.046875 	-1 	0.5 	39.5588 	0.116909 	2.94179e-19
-0.03125 	-1 	0.5 	39.5568 	0.112995 	6.63628e-19
-0.015625 	-1 	0.5 	39.5554 	0.109703 	-1.07114e-18
0 	-1 	0.5 	39.5542 	0.106417 	3.37397e-20
0.015625 	-1 	0.5 	39.553 	0.103177 	4.49539e-19
0.03125 	-1 	0.5 	39.5514 	0.0999822 	4.79401e-20
0.046875 	-1 	0.5 	39.5496 	0.0966129 	-1.73426e-18
0.0625 	-1 	0.5 	39.5479 	0.0933208 	-2.41789e-18
0.078125 	-1 	0.5 	39.5467 	0.0905653 	-1.23757e-18
0.09375 	-1 	0.5 	39.5455 	0.0870737 	-9.23403e-19
0.109375 	-1 	0.5 	39.5442 	0.0833386 	9.55727e-19
0.125 	-1 	0.5 	39.5431 	0.0801923 	3.20179e-19
0.140625 	-1 	0.5 	39.5418 	0.0767904 	6.06532e-20
0.15625 	-1 	0.5 	39.5403 	0.07347 	-9.03325e-20
0.171875 	-1 	0.5 	39.5389 	0.070054 	8.33959e-20
0.1875 	-1 	0.5 	39.5377 	0.066782 	-4.41885e-19
0.203125 	-1 	0.5 	39.5363 	0.0633003 	-9.07092e-19
0.21875 	-1 	0.5 	39.5351 	0.0598194 	-4.64583e-20
0.234375 	-1 	0.5 	39.5338 	0.0563399 	-4.76867e-19
0.25 	-1 	0.5 	39.5324 	0.0528989 	-1.19973e-18
0.265625 	-1 	0.5 	39.5311 	0.0495787 	-6.8062e-19
0.28125 	-1 	0.5 	39.5299 	0.0458487 	-8.23066e-19
0.296875 	-1 	0.5 	39.5289 	0.0411806 	-1.43004e-18
0.3125 	-1 	0.5 	39.5277 	0.0384239 	-3.03963e-19
0.328125 	-1 	0.5 	39.5265 	0.0348549 	-1.31653e-19
0.34375 	-1 	0.5 	39.5256 	0.0311143 	-9.30067e-19
0.359375 	-1 	0.5 	39.5246 	0.0273274 	-1.07512e-18
0.375 	-1 	0.5 	39.5236 	0.0237116 	-1.55738e-18
0.390625 	-1 	0.5 	39.5226 	0.0196858 	-3.76698e-19
0.40625 	-1 	0.5 	39.5216 	0.0156891 	-6.61182e-19
0.421875 	-1 	0.5 	39.5206 	0.0117667 	2.98134e-19
0.4375 	-1 	0.5 	39.5193 	0.00759742 	1.8828e-19
0.453125 	-1 	0.5 	39.5188 	0.00335341 	1.58432e-19
0.46875 	-1 	0.5 	39.518 	-0.000673033 	-1.55206e-18
0.484375 	-1 	0.5 	39.5174 	-0.00530722 	9.01479e-19
0.5 	-1 	0.5 	39.5163 	-0.0091499 	-1.60069e-18
0.515625 	-1 	0.5 	39.5152 	-0.0143538 	-3.5982e-19
0.53125 	-1 	0.5 	39.5148 	-0.0188832 	-6.64712e-20
0.546875 	-1 	0.5 	39.5146 	-0.0228273 	2.8604e-19
0.5625 	-1 	0.5 	39.5139 	-0.027271 	-1.78302e-19
0.578125 	-1 	0.5 	39.5138 	-0.0320307 	-2.62235e-19
0.59375 	-1 	0.5 	39.5133 	-0.0365392 	1.26739e-19
0.609375 	-1 	0.5 	39.5131 	-0.0412394 	8.5934e-20
0.625 	-1 	0.5 	39.5136 	-0.045844 	9.78548e-20
0.640625 	-1 	0.5 	39.5143 	-0.050371 	8.95895e-20
0.65625 	-1 	0.5 	39.5142 	-0.0551189 	1.31118e-18
0.671875 	-1 	0.5 	39.5139 	-0.0599449 	2.6323e-18
0.6875 	-1 	0.5 	39.514 	-0.0646286 	1.36294e-18
0.703125 	-1 	0.5 	39.5145 	-0.0697069 	8.58368e-19
0.71875 	-1 	0.5 	39.5154 	-0.0750671 	3.81949e-19
0.734375 	-1 	0.5 	39.5165 	-0.0802494 	4.24147e-19
0.75 	-1 	0.5 	39.5167 	-0.0847998 	-1.27815e-19
0.765625 	-1 	0.5 	39.5176 	-0.0893208 	-2.21872e-19
0.78125 	-1 	0.5 	39.5186 	-0.0943203 	-9.50883e-20
0.796875 	-1 	0.5 	39.52 	-0.0991201 	-5.79541e-20
0.8125 	-1 	0.5 	39.5214 	-0.104004 	-8.56257e-21
0.828125 	-1 	0.5 	39.5223 	-0.109185 	7.12492e-20
0.84375 	-1 	0.5 	39.5234 	-0.114306 	3.49085e-19
0.859375 	-1 	0.5 	39.5246 	-0.120036 	2.31831e-18
0.875 	-1 	0.5 	39.5265 	-0.124371 	8.16693e-19
0.890625 	-1 	0.5 	39.5285 	-0.128777 	-2.57756e-19
0.90625 	-1 	0.5 	39.5306 	-0.133906 	5.89665e-20
0.921875 	-1 	0.5 	39.5326 	-0.13851 	-2.22504e-20
0.9375 	-1 	0.5 	39.5347 	-0.14291 	8.66542e-20
0.953125 	-1 	0.5 	39.5371 	-0.147929 	-6.45338e-20
0.96875 	-1 	0.5 	39.5394 	-0.152245 	-2.14112e-19
0.984375 	-1 	0.5 	39.5419 	-0.156497 	-2.54878e-19
1 	-1 	0.5 	39.5447 	-0.160533 	-1.26528e-18
1.01562 	-1 	0.5 	39.5473 	-0.165126 	2.69484e-19
1.03125 	-1 	0.5 	39.5503 	-0.169755 	7.16042e-19
1.04688 	-1 	0.5 	39.5539 	-0.173971 	1.11527e-18
1.0625 	-1 	0.5 	39.5573 	-0.178181 	1.83052e-18
1.07812 	-1 	0.5 	39.5603 	-0.181742 	2.98377e-19
1.09375 	-1 	0.5 	39.5633 	-0.185977 	-1.09648e-19
1.10938 	-1 	0.5 	39.5659 	-0.190842 	-9.67877e-19
1.125 	-1 	0.5 	39.5686 	-0.194338 	1.08559e-18
1.14062 	-1 	0.5 	39.5706 	-0.198589 	7.79534e-19
1.15625 	-1 	0.5 	39.5746 	-0.201925 	1.95388e-19
1.17188 	-1 	0.5 	39.5786 	-0.205024 	9.34752e-19
1.1875 	-1 	0.5 	39.5822 	-0.208893 	2.45123e-18
1.20312 	-1 	0.5 	39.5862 	-0.213167 	3.80549e-18
1.21875 	-1 	0.5 	39.5893 	-0.214937 	-1.65945e-19
1.23438 	-1 	0.5 	39.593 	-0.218726 	1.56445e-19
1.25 	-1 	0.5 	39.5972 	-0.222562 	-5.16902e-19
1.26562 	-1 	0.5 	39.6013 	-0.226617 	-1.02359e-18
1.28125 	-1 	0.5 	39.606 	-0.229611 	-6.07008e-19
1.29688 	-1 	0.5 	39.6103 	-0.232045 	-1.77739e-19
1.3125 	-1 	0.5 	39.614 	-0.233976 	2.23682e-19
1.32812 	-1 	0.5 	39.6182 	-0.236738 	4.6245e-19
1.34375 	-1 	0.5 	39.6217 	-0.239907 	6.64758e-19
1.35938 	-1 	0.5 	39.626 	-0.241736 	2.79995e-19
1.375 	-1 	0.5 	39.6304 	-0.243998 	5.2689e-19
1.39062 	-1 	0.5 	39.6347 	-0.246033 	8.39513e-19
1.40625 	-1 	0.5 	39.6384 	-0.248023 	4.18436e-19
1.42188 	-1 	0.5 	39.6419 	-0.250003 	-2.90613e-18
1.4375 	-1 	0.5 	39.6459 	-0.252077 	-3.77581e-18
1.45312 	-1 	0.5 	39.6505 	-0.254138 	-5.32532e-19
1.46875 	-1 	0.5 	39.6538 	-0.255611 	-1.43892e-19
1.48438 	-1 	0.5 	39.6582 	-0.257131 	8.33777e-20
-0.5 	-0.984375 	0.5 	39.6244 	0.206832 	-3.47597e-20
-0.484375 	-0.984375 	0.5 	39.6213 	0.204711 	2.89953e-19
-0.46875 	-0.984375 	0.5 	39.6182 	0.202303 	5.62724e-19
-0.453125 	-0.984375 	0.5 	39.6152 	0.199646 	1.56019e-18
-0.4375 	-0.984375 	0.5 	39.612 	0.196198 	-5.37816e-19
-0.421875 	-0.984375 	0.5 	39.6089 	0.193444 	-1.13272e-18
-0.40625 	-0.984375 	0.5 	39.6059 	0.191263 	9.49154e-19
-0.390625 	-0.984375 	0.5 	39.6032 	0.188025 	-1.378e-18
-0.375 	-0.984375 	0.5 	39.6004 	0.185135 	-1.23313e-18
-0.359375 	-0.984375 	0.5 	39.5976 	0.182314 	-7.35722e-19
-0.34375 	-0.984375 	0.5 	39.5948 	0.179491 	-1.18388e-18
-0.328125 	-0.984375 	0.5 	39.5921 	0.176636 	1.47756e-19
-0.3125 	-0.984375 	0.5 	39.5895 	0.173764 	1.30204e-19
-0.296875 	-0.984375 	0.5 	39.5869 	0.170892 	1.12652e-19
-0.28125 	-0.984375 	0.5 	39.5842 	0.168066 	4.27368e-19
-0.265625 	-0.984375 	0.5 	39.5819 	0.164901 	3.33166e-19
-0.25 	-0.984375 	0.5 	39.5798 	0.161582 	1.57697e-19
-0.234375 	-0.984375 	0.5 	39.5776 	0.158283 	-3.25463e-20
-0.21875 	-0.984375 	0.5 	39.5755 	0.154935 	-6.99385e-19
-0.203125 	-0.984375 	0.5 	39.5734 	0.151482 	-1.87958e-18
-0.1875 	-0.984375 	0.5 	39.5714 	0.148203 	1.15657e-18
-0.171875 	-0.984375 	0.5 	39.5694 	0.144699 	2.32666e-18
-0.15625 	-0.984375 	0.5 	39.5678 	0.142168 	-3.18322e-20
-0.140625 	-0.984375 	0.5 	39.5659 	0.139106 	-8.2359e-19
-0.125 	-0.984375 	0.5 	39.564 	0.135773 	-5.1056e-19
-0.109375 	-0.984375 	0.5 	39.5616 	0.13207 	-6.23458e-19
-0.09375 	-0.984375 	0.5 	39.5599 	0.128491 	2.43953e-19
-0.078125 	-0.984375 	0.5 	39.5582 	0.12555 	-2.01395e-19
-0.0625 	-0.984375 	0.5 	39.5565 	0.122219 	1.27652e-19
-0.046875 	-0.984375 	0.5 	39.5547 	0.118686 	-2.22403e-20
-0.03125 	-0.984375 	0.5 	39.5528 	0.114858 	-9.9953e-19
-0.015625 	-0.984375 	0.5 	39.5512 	0.111412 	4.90342e-19
0 	-0.984375 	0.5 	39.55 	0.10788 	1.19758e-18
0.015625 	-0.984375 	0.5 	39.5486 	0.104501 	4.03111e-19
0.03125 	-0.984375 	0.5 	39.5469 	0.101564 	1.43725e-18
0.046875 	-0.984375 	0.5 	39.5453 	0.0985502 	4.05837e-19
0.0625 	-0.984375 	0.5 	39.5437 	0.095472 	-1.08547e-18
0.078125 	-0.984375 	0.5 	39.5425 	0.0920057 	-8.1117e-19
0.09375 	-0.984375 	0.5 	39.5413 	0.088531 	-5.96612e-19
0.109375 	-0.984375 	0.5 	39.54 	0.0850415 	-4.21186e-19
0.125 	-0.984375 	0.5 	39.5387 	0.0817346 	8.76484e-19
0.140625 	-0.984375 	0.5 	39.5374 	0.0782611 	2.13003e-20
0.15625 	-0.984375 	0.5 	39.536 	0.0751015 	-9.84912e-19
0.171875 	-0.984375 	0.5 	39.5346 	0.0715899 	-1.19057e-19
0.1875 	-0.984375 	0.5 	39.5332 	0.068099 	3.52576e-19
0.203125 	-0.984375 	0.5 	39.5319 	0.0645635 	8.72086e-19
0.21875 	-0.984375 	0.5 	39.5308 	0.0611634 	2.87892e-19
0.234375 	-0.984375 	0.5 	39.5296 	0.0576585 	9.98329e-19
0.25 	-0.984375 	0.5 	39.5283 	0.0541273 	-8.36436e-19
0.265625 	-0.984375 	0.5 	39.5271 	0.0509059 	5.0519e-19
0.28125 	-0.984375 	0.5 	39.5258 	0.0471549 	-1.81587e-20
0.296875 	-0.984375 	0.5 	39.5246 	0.0432751 	-3.5178e-19
0.3125 	-0.984375 	0.5 	39.5233 	0.0399816 	-5.9709e-20
0.328125 	-0.984375 	0.5 	39.5221 	0.0360223 	-9.54114e-20
0.34375 	-0.984375 	0.5 	39.521 	0.0321764 	-3.52968e-19
0.359375 	-0.984375 	0.5 	39.5201 	0.0282078 	-9.74776e-19
0.375 	-0.984375 	0.5 	39.519 	0.0244132 	-5.60927e-19
0.390625 	-0.984375 	0.5 	39.5178 	0.0207026 	-8.32015e-21
0.40625 	-0.984375 	0.5 	39.5167 	0.0167175 	-5.70944e-19
0.421875 	-0.984375 	0.5 	39.5159 	0.0124024 	-1.01022e-18
0.4375 	-0.984375 	0.5 	39.5148 	0.00856523 	3.6302e-19
0.453125 	-0.984375 	0.5 	39.514 	0.00442512 	-1.05433e-18
0.46875 	-0.984375 	0.5 	39.5133 	0.000256918 	-2.14106e-18
0.484375 	-0.984375 	0.5 	39.5125 	-0.00447702 	1.36797e-18
0.5 	-0.984375 	0.5 	39.5117 	-0.00876005 	1.76874e-18
0.515625 	-0.984375 	0.5 	39.5101 	-0.012474 	-7.78967e-19
0.53125 	-0.984375 	0.5 	39.5095 	-0.0171417 	-9.82299e-20
0.546875 	-0.984375 	0.5 	39.5087 	-0.0219776 	-5.54099e-20
0.5625 	-0.984375 	0.5 	39.5081 	-0.0267853 	1.25844e-19
0.578125 	-0.984375 	0.5 	39.508 	-0.0315303 	3.89948e-19
0.59375 	-0.984375 	0.5 	39.5079 	-0.0362753 	6.54052e-19
0.609375 	-0.984375 	0.5 	39.5079 	-0.041249 	-8.13192e-20
0.625 	-0.984375 	0.5 	39.508 	-0.0463764 	-7.38448e-19
0.640625 	-0.984375 	0.5 	39.5083 	-0.0504008 	-3.2262e-19
0.65625 	-0.984375 	0.5 	39.5087 	-0.0557763 	-1.83333e-18
0.671875 	-0.984375 	0.5 	39.5084 	-0.0603038 	1.45499e-18
0.6875 	-0.984375 	0.5 	39.5086 	-0.0650237 	8.76632e-19
0.703125 	-0.984375 	0.5 	39.5089 	-0.0701456 	2.32785e-19
0.71875 	-0.984375 	0.5 	39.509 	-0.0757849 	-1.51329e-19
0.734375 	-0.984375 	0.5 	39.5098 	-0.0814605 	-7.0937e-19
0.75 	-0.984375 	0.5 	39.5108 	-0.085547 	-4.68875e-19
0.765625 	-0.984375 	0.5 	39.5119 	-0.0901779 	-3.42253e-19
0.78125 	-0.984375 	0.5 	39.5131 	-0.0954512 	-1.32851e-18
0.796875 	-0.984375 	0.5 	39.5142 	-0.100397 	-1.12391e-18
0.8125 	-0.984375 	0.5 	39.5155 	-0.105825 	-4.46122e-20
0.828125 	-0.984375 	0.5 	39.5167 	-0.110552 	8.46828e-20
0.84375 	-0.984375 	0.5 	39.5178 	-0.115694 	2.19066e-19
0.859375 	-0.984375 	0.5 	39.5192 	-0.12079 	6.27081e-19
0.875 	-0.984375 	0.5 	39.5209 	-0.125355 	-1.10077e-18
0.890625 	-0.984375 	0.5 	39.5233 	-0.130194 	-8.00077e-19
0.90625 	-0.984375 	0.5 	39.5252 	-0.135515 	-2.45244e-19
0.921875 	-0.984375 	0.5 	39.5272 	-0.140491 	2.77426e-21
0.9375 	-0.984375 	0.5 	39.5297 	-0.144684 	7.82488e-19
0.953125 	-0.984375 	0.5 	39.5317 	-0.150195 	-4.42931e-21
0.96875 	-0.984375 	0.5 	39.5342 	-0.154691 	-9.80282e-20
0.984375 	-0.984375 	0.5 	39.5365 	-0.159095 	-2.62717e-19
1 	-0.984375 	0.5 	39.5392 	-0.163839 	-2.72799e-19
1.01562 	-0.984375 	0.5 	39.5422 	-0.168391 	2.86518e-18
1.03125 	-0.984375 	0.5 	39.5451 	-0.173132 	6.94182e-19
1.04688 	-0.984375 	0.5 	39.5486 	-0.177436 	1.2936e-19
1.0625 	-0.984375 	0.5 	39.5525 	-0.181748 	6.53787e-19
1.07812 	-0.984375 	0.5 	39.5558 	-0.186075 	4.33216e-19
1.09375 	-0.984375 	0.5 	39.5583 	-0.191463 	-7.62058e-19
1.10938 	-0.984375 	0.5 	39.5612 	-0.19541 	-1.1684e-18
1.125 	-0.984375 	0.5 	39.5642 	-0.197838 	5.58633e-19
1.14062 	-0.984375 	0.5 	39.5665 	-0.201919 	-1.46715e-19
1.15625 	-0.984375 	0.5 	39.5716 	-0.204897 	3.5104e-19
1.17188 	-0.984375 	0.5 	39.575 	-0.208384 	1.64661e-18
1.1875 	-0.984375 	0.5 	39.5785 	-0.211767 	2.0685e-18
1.20312 	-0.984375 	0.5 	39.5817 	-0.214794 	1.50337e-18
1.21875 	-0.984375 	0.5 	39.585 	-0.218012 	1.26106e-18
1.23438 	-0.984375 	0.5 	39.5898 	-0.221807 	1.9405e-19
1.25 	-0.984375 	0.5 	39.5937 	-0.226924 	-9.13192e-19
1.26562 	-0.984375 	0.5 	39.598 	-0.2304 	-1.17172e-18
1.28125 	-0.984375 	0.5 	39.6012 	-0.233219 	-7.25643e-19
1.29688 	-0.984375 	0.5 	39.6064 	-0.236378 	-3.20755e-19
1.3125 	-0.984375 	0.5 	39.6099 	-0.238174 	5.41719e-20
1.32812 	-0.984375 	0.5 	39.6147 	-0.240608 	1.39642e-19
1.34375 	-0.984375 	0.5 	39.6187 	-0.243179 	4.20633e-19
1.35938 	-0.984375 	0.5 	39.6228 	-0.245336 	1.57683e-19
1.375 	-0.984375 	0.5 	39.6271 	-0.24759 	4.19767e-19
1.39062 	-0.984375 	0.5 	39.6315 	-0.25032 	6.39029e-19
1.40625 	-0.984375 	0.5 	39.636 	-0.252318 	1.1634e-18
1.42188 	-0.984375 	0.5 	39.6403 	-0.254465 	-8.8517e-19
1.4375 	-0.984375 	0.5 	39.6439 	-0.256481 	-3.28817e-18
1.45312 	-0.984375 	0.5 	39.6483 	-0.258473 	-7.24596e-19
1.46875 	-0.984375 	0.5 	39.6524 	-0.259978 	-4.47675e-19
1.48438 	-0.984375 	0.5 	39.6565 	-0.261287 	2.15311e-19
-0.5 	-0.96875 	0.5 	39.6211 	0.210277 	-3.97326e-19
-0.484375 	-0.96875 	0.5 	39.6178 	0.207784 	5.02529e-19
-0.46875 	-0.96875 	0.5 	39.6146 	0.205405 	1.22121e-18
-0.453125 	-0.96875 	0.5 	39.6114 	0.202876 	1.75621e-18
-0.4375 	-0.96875 	0.5 	39.6085 	0.199592 	4.07974e-19
-0.421875 	-0.96875 	0.5 	39.6054 	0.196995 	5.33383e-19
-0.40625 	-0.96875 	0.5 	39.6021 	0.194209 	2.50371e-18
-0.390625 	-0.96875 	0.5 	39.5995 	0.191047 	-3.8035e-19
-0.375 	-0.96875 	0.5 	39.5968 	0.187748 	-2.3136e-18
-0.359375 	-0.96875 	0.5 	39.594 	0.185056 	-1.16069e-18
-0.34375 	-0.96875 	0.5 	39.5911 	0.181922 	-5.18794e-19
-0.328125 	-0.96875 	0.5 	39.5883 	0.179088 	-7.14932e-19
-0.3125 	-0.96875 	0.5 	39.5858 	0.176444 	-2.25956e-19
-0.296875 	-0.96875 	0.5 	39.5831 	0.173545 	1.03701e-19
-0.28125 	-0.96875 	0.5 	39.5805 	0.170374 	2.27036e-19
-0.265625 	-0.96875 	0.5 	39.5783 	0.166887 	6.2424e-19
-0.25 	-0.96875 	0.5 	39.576 	0.164492 	5.97086e-20
-0.234375 	-0.96875 	0.5 	39.5739 	0.160355 	2.85065e-19
-0.21875 	-0.96875 	0.5 	39.5713 	0.156933 	9.3793e-19
-0.203125 	-0.96875 	0.5 	39.5692 	0.153682 	-3.14559e-20
-0.1875 	-0.96875 	0.5 	39.5672 	0.150196 	1.65117e-18
-0.171875 	-0.96875 	0.5 	39.5654 	0.147184 	1.03726e-18
-0.15625 	-0.96875 	0.5 	39.5636 	0.144204 	-7.86446e-19
-0.140625 	-0.96875 	0.5 	39.5617 	0.141016 	-2.40823e-19
-0.125 	-0.96875 	0.5 	39.5596 	0.137382 	-4.4955e-19
-0.109375 	-0.96875 	0.5 	39.5573 	0.133683 	-3.86273e-19
-0.09375 	-0.96875 	0.5 	39.5556 	0.130066 	6.09176e-19
-0.078125 	-0.96875 	0.5 	39.554 	0.127013 	3.6328e-19
-0.0625 	-0.96875 	0.5 	39.5524 	0.12409 	-9.78528e-20
-0.046875 	-0.96875 	0.5 	39.5507 	0.120481 	-1.75335e-18
-0.03125 	-0.96875 	0.5 	39.5488 	0.116628 	-1.75528e-18
-0.015625 	-0.96875 	0.5 	39.5475 	0.114283 	1.38635e-18
0 	-0.96875 	0.5 	39.5458 	0.109627 	7.17168e-19
0.015625 	-0.96875 	0.5 	39.5442 	0.106224 	-1.5771e-19
0.03125 	-0.96875 	0.5 	39.5427 	0.103391 	-9.87049e-19
0.046875 	-0.96875 	0.5 	39.5411 	0.100223 	-1.22375e-18
0.0625 	-0.96875 	0.5 	39.5397 	0.0965076 	-5.27974e-19
0.078125 	-0.96875 	0.5 	39.5383 	0.0935747 	-6.79585e-19
0.09375 	-0.96875 	0.5 	39.5372 	0.0901274 	-6.44075e-19
0.109375 	-0.96875 	0.5 	39.5359 	0.0865534 	-1.80941e-18
0.125 	-0.96875 	0.5 	39.5345 	0.0831116 	-1.43417e-18
0.140625 	-0.96875 	0.5 	39.5331 	0.0797312 	-1.48224e-20
0.15625 	-0.96875 	0.5 	39.5316 	0.0764084 	2.47986e-18
0.171875 	-0.96875 	0.5 	39.5302 	0.0730014 	3.42496e-18
0.1875 	-0.96875 	0.5 	39.5287 	0.0699661 	-1.24125e-18
0.203125 	-0.96875 	0.5 	39.5277 	0.0660584 	1.90968e-19
0.21875 	-0.96875 	0.5 	39.5265 	0.062523 	1.44309e-18
0.234375 	-0.96875 	0.5 	39.5254 	0.058991 	1.15608e-18
0.25 	-0.96875 	0.5 	39.5243 	0.055452 	5.16591e-19
0.265625 	-0.96875 	0.5 	39.523 	0.0519253 	3.74216e-19
0.28125 	-0.96875 	0.5 	39.5217 	0.0484566 	3.01489e-19
0.296875 	-0.96875 	0.5 	39.5202 	0.044478 	-3.6773e-19
0.3125 	-0.96875 	0.5 	39.5189 	0.0410608 	-7.36478e-20
0.328125 	-0.96875 	0.5 	39.5177 	0.0371743 	-7.75525e-20
0.34375 	-0.96875 	0.5 	39.5167 	0.0332152 	-4.69603e-19
0.359375 	-0.96875 	0.5 	39.5154 	0.0293565 	-1.33212e-18
0.375 	-0.96875 	0.5 	39.5141 	0.0253386 	-1.9887e-19
0.390625 	-0.96875 	0.5 	39.5129 	0.0217617 	-2.3914e-20
0.40625 	-0.96875 	0.5 	39.5119 	0.0177675 	-4.01928e-19
0.421875 	-0.96875 	0.5 	39.5109 	0.0136772 	6.33637e-19
0.4375 	-0.96875 	0.5 	39.5098 	0.00963493 	4.99616e-19
0.453125 	-0.96875 	0.5 	39.5089 	0.00505907 	1.75852e-18
0.46875 	-0.96875 	0.5 	39.5079 	0.000966251 	-1.1916e-19
0.484375 	-0.96875 	0.5 	39.5073 	-0.00356466 	1.49463e-18
0.5 	-0.96875 	0.5 	39.5058 	-0.00754506 	3.32606e-19
0.515625 	-0.96875 	0.5 	39.5047 	-0.0119199 	1.10468e-19
0.53125 	-0.96875 	0.5 	39.5042 	-0.0169 	2.30525e-19
0.546875 	-0.96875 	0.5 	39.5038 	-0.0219328 	4.98841e-19
0.5625 	-0.96875 	0.5 	39.5033 	-0.0267486 	-1.85838e-18
0.578125 	-0.96875 	0.5 	39.5025 	-0.0310045 	1.86843e-18
0.59375 	-0.96875 	0.5 	39.5024 	-0.0358414 	9.93028e-19
0.609375 	-0.96875 	0.5 	39.5019 	-0.040864 	1.57859e-20
0.625 	-0.96875 	0.5 	39.5021 	-0.0457026 	-4.66129e-19
0.640625 	-0.96875 	0.5 	39.5023 	-0.0505268 	-1.347e-18
0.65625 	-0.96875 	0.5 	39.5026 	-0.0557483 	-1.53968e-18
0.671875 	-0.96875 	0.5 	39.5027 	-0.0605767 	2.98514e-19
0.6875 	-0.96875 	0.5 	39.5027 	-0.0657398 	2.64743e-19
0.703125 	-0.96875 	0.5 	39.5026 	-0.0706923 	-3.93582e-20
0.71875 	-0.96875 	0.5 	39.5026 	-0.0762573 	-3.17217e-19
0.734375 	-0.96875 	0.5 	39.5035 	-0.0809812 	-3.47625e-19
0.75 	-0.96875 	0.5 	39.5044 	-0.086161 	-1.57494e-19
0.765625 	-0.96875 	0.5 	39.5058 	-0.0916219 	8.20988e-19
0.78125 	-0.96875 	0.5 	39.507 	-0.0963712 	6.65924e-20
0.796875 	-0.96875 	0.5 	39.5082 	-0.101473 	-9.05544e-19
0.8125 	-0.96875 	0.5 	39.5095 	-0.10724 	-1.08941e-19
0.828125 	-0.96875 	0.5 	39.5108 	-0.112111 	2.55156e-20
0.84375 	-0.96875 	0.5 	39.512 	-0.117042 	1.64889e-19
0.859375 	-0.96875 	0.5 	39.5139 	-0.122197 	-3.03098e-19
0.875 	-0.96875 	0.5 	39.5159 	-0.127228 	-1.05282e-18
0.890625 	-0.96875 	0.5 	39.5181 	-0.13182 	-1.16936e-18
0.90625 	-0.96875 	0.5 	39.5199 	-0.137681 	-6.74913e-20
0.921875 	-0.96875 	0.5 	39.5217 	-0.142685 	-2.62039e-19
0.9375 	-0.96875 	0.5 	39.524 	-0.147559 	-1.53857e-19
0.953125 	-0.96875 	0.5 	39.5263 	-0.152584 	4.33931e-20
0.96875 	-0.96875 	0.5 	39.5291 	-0.157515 	-1.17629e-20
0.984375 	-0.96875 	0.5 	39.5312 	-0.1618 	-4.27923e-19
1 	-0.96875 	0.5 	39.5345 	-0.166507 	-2.22704e-18
1.01562 	-0.96875 	0.5 	39.5371 	-0.17167 	-3.09428e-19
1.03125 	-0.96875 	0.5 	39.54 	-0.176508 	6.75866e-19
1.04688 	-0.96875 	0.5 	39.5436 	-0.180821 	1.21527e-18
1.0625 	-0.96875 	0.5 	39.5471 	-0.185141 	2.41006e-18
1.07812 	-0.96875 	0.5 	39.5501 	-0.189645 	4.58872e-19
1.09375 	-0.96875 	0.5 	39.5537 	-0.19371 	3.07175e-19
1.10938 	-0.96875 	0.5 	39.5568 	-0.198061 	-3.2003e-19
1.125 	-0.96875 	0.5 	39.5598 	-0.201319 	-1.59935e-19
1.14062 	-0.96875 	0.5 	39.5634 	-0.204949 	1.00175e-19
1.15625 	-0.96875 	0.5 	39.567 	-0.208639 	9.27508e-19
1.17188 	-0.96875 	0.5 	39.5708 	-0.212567 	1.16942e-18
1.1875 	-0.96875 	0.5 	39.5737 	-0.215633 	4.28087e-18
1.20312 	-0.96875 	0.5 	39.5773 	-0.218867 	2.54284e-18
1.21875 	-0.96875 	0.5 	39.5815 	-0.222922 	-1.81338e-18
1.23438 	-0.96875 	0.5 	39.5861 	-0.22641 	-3.21584e-19
1.25 	-0.96875 	0.5 	39.5899 	-0.231218 	-1.26612e-18
1.26562 	-0.96875 	0.5 	39.5945 	-0.234165 	-1.2584e-18
1.28125 	-0.96875 	0.5 	39.5979 	-0.237002 	-8.73774e-19
1.29688 	-0.96875 	0.5 	39.6015 	-0.239917 	-4.36802e-19
1.3125 	-0.96875 	0.5 	39.6058 	-0.242372 	-1.15338e-19
1.32812 	-0.96875 	0.5 	39.6106 	-0.244839 	-3.16734e-20
1.34375 	-0.96875 	0.5 	39.6154 	-0.246835 	7.74745e-20
1.35938 	-0.96875 	0.5 	39.6197 	-0.24884 	1.98235e-19
1.375 	-0.96875 	0.5 	39.6238 	-0.252068 	1.73948e-19
1.39062 	-0.96875 	0.5 	39.6283 	-0.254786 	2.77542e-19
1.40625 	-0.96875 	0.5 	39.6328 	-0.256528 	1.82188e-18
1.42188 	-0.96875 	0.5 	39.6373 	-0.258624 	1.62186e-18
1.4375 	-0.96875 	0.5 	39.642 	-0.260878 	-1.37112e-19
1.45312 	-0.96875 	0.5 	39.6464 	-0.262721 	-7.61652e-19
1.46875 	-0.96875 	0.5 	39.6504 	-0.264045 	-5.82408e-20
1.48438 	-0.96875 	0.5 	39.6544 	-0.265377 	6.32426e-19
-0.5 	-0.953125 	0.5 	39.6178 	0.213719 	-4.50821e-19
-0.484375 	-0.953125 	0.5 	39.6144 	0.211086 	1.83135e-18
-0.46875 	-0.953125 	0.5 	39.6112 	0.208289 	3.57794e-19
-0.453125 	-0.953125 	0.5 	39.608 	0.205491 	3.02493e-19
-0.4375 	-0.953125 	0.5 	39.6049 	0.202738 	4.59976e-19
-0.421875 	-0.953125 	0.5 	39.6018 	0.199854 	7.27719e-19
-0.40625 	-0.953125 	0.5 	39.5987 	0.196977 	1.27399e-18
-0.390625 	-0.953125 	0.5 	39.5958 	0.194029 	7.04846e-19
-0.375 	-0.953125 	0.5 	39.593 	0.190971 	-2.96113e-19
-0.359375 	-0.953125 	0.5 	39.5902 	0.187443 	1.81642e-19
-0.34375 	-0.953125 	0.5 	39.5872 	0.184828 	-3.35089e-19
-0.328125 	-0.953125 	0.5 	39.5848 	0.18161 	-4.84659e-19
-0.3125 	-0.953125 	0.5 	39.5817 	0.178679 	-4.3494e-19
-0.296875 	-0.953125 	0.5 	39.5791 	0.175892 	-3.52496e-20
-0.28125 	-0.953125 	0.5 	39.5768 	0.172647 	-1.80291e-20
-0.265625 	-0.953125 	0.5 	39.5747 	0.169201 	2.82831e-19
-0.25 	-0.953125 	0.5 	39.5724 	0.165863 	6.84624e-19
-0.234375 	-0.953125 	0.5 	39.57 	0.162283 	1.21902e-18
-0.21875 	-0.953125 	0.5 	39.5677 	0.159017 	1.13002e-18
-0.203125 	-0.953125 	0.5 	39.5652 	0.155805 	1.02076e-18
-0.1875 	-0.953125 	0.5 	39.5629 	0.15249 	1.05011e-18
-0.171875 	-0.953125 	0.5 	39.5608 	0.14901 	-1.35079e-18
-0.15625 	-0.953125 	0.5 	39.5589 	0.1458 	-1.93516e-18
-0.140625 	-0.953125 	0.5 	39.5569 	0.142413 	9.24059e-19
-0.125 	-0.953125 	0.5 	39.5549 	0.138676 	1.21841e-18
-0.109375 	-0.953125 	0.5 	39.553 	0.135392 	1.09917e-19
-0.09375 	-0.953125 	0.5 	39.5512 	0.132088 	3.72273e-19
-0.078125 	-0.953125 	0.5 	39.5494 	0.128791 	8.40971e-19
-0.0625 	-0.953125 	0.5 	39.5479 	0.125486 	-1.26243e-19
-0.046875 	-0.953125 	0.5 	39.5463 	0.121798 	-1.19734e-19
-0.03125 	-0.953125 	0.5 	39.5447 	0.11831 	-1.18554e-18
-0.015625 	-0.953125 	0.5 	39.5431 	0.114836 	2.58106e-19
0 	-0.953125 	0.5 	39.5419 	0.111455 	-5.28483e-19
0.015625 	-0.953125 	0.5 	39.5401 	0.107631 	-2.07731e-19
0.03125 	-0.953125 	0.5 	39.5384 	0.10472 	-1.1121e-18
0.046875 	-0.953125 	0.5 	39.5369 	0.101096 	-5.56046e-19
0.0625 	-0.953125 	0.5 	39.5358 	0.0974978 	-3.93631e-20
0.078125 	-0.953125 	0.5 	39.5343 	0.0945401 	-7.02988e-20
0.09375 	-0.953125 	0.5 	39.5329 	0.0916364 	-2.33663e-19
0.109375 	-0.953125 	0.5 	39.5316 	0.088155 	-1.68902e-19
0.125 	-0.953125 	0.5 	39.5303 	0.0846371 	1.02991e-18
0.140625 	-0.953125 	0.5 	39.5287 	0.081282 	1.02381e-19
0.15625 	-0.953125 	0.5 	39.5275 	0.0777391 	-1.39997e-18
0.171875 	-0.953125 	0.5 	39.5261 	0.0741484 	2.165e-18
0.1875 	-0.953125 	0.5 	39.5247 	0.0709244 	-5.1714e-19
0.203125 	-0.953125 	0.5 	39.5234 	0.0672195 	8.83356e-19
0.21875 	-0.953125 	0.5 	39.5221 	0.0638379 	1.50584e-19
0.234375 	-0.953125 	0.5 	39.5206 	0.0604671 	-1.22946e-18
0.25 	-0.953125 	0.5 	39.5197 	0.0567388 	1.20849e-18
0.265625 	-0.953125 	0.5 	39.5186 	0.0532932 	5.86868e-19
0.28125 	-0.953125 	0.5 	39.5172 	0.0496472 	2.26251e-19
0.296875 	-0.953125 	0.5 	39.5162 	0.0456495 	-1.81805e-18
0.3125 	-0.953125 	0.5 	39.5146 	0.0419424 	-5.93249e-19
0.328125 	-0.953125 	0.5 	39.5133 	0.0381895 	-2.22246e-19
0.34375 	-0.953125 	0.5 	39.5119 	0.0343329 	-1.69916e-18
0.359375 	-0.953125 	0.5 	39.5106 	0.030798 	-1.35907e-18
0.375 	-0.953125 	0.5 	39.5093 	0.0265846 	2.66925e-19
0.390625 	-0.953125 	0.5 	39.5081 	0.0231202 	1.49023e-19
0.40625 	-0.953125 	0.5 	39.5068 	0.019021 	5.13445e-19
0.421875 	-0.953125 	0.5 	39.5059 	0.0147192 	8.3797e-19
0.4375 	-0.953125 	0.5 	39.5047 	0.0107599 	5.01114e-19
0.453125 	-0.953125 	0.5 	39.5039 	0.00609143 	2.18209e-18
0.46875 	-0.953125 	0.5 	39.5028 	0.00194698 	6.52342e-19
0.484375 	-0.953125 	0.5 	39.5017 	-0.0026213 	6.08412e-19
0.5 	-0.953125 	0.5 	39.5007 	-0.00755451 	7.21837e-19
0.515625 	-0.953125 	0.5 	39.4995 	-0.0112075 	6.58728e-20
0.53125 	-0.953125 	0.5 	39.4988 	-0.0162829 	-4.51493e-19
0.546875 	-0.953125 	0.5 	39.4984 	-0.021459 	1.8537e-19
0.5625 	-0.953125 	0.5 	39.4986 	-0.0266415 	-3.19141e-18
0.578125 	-0.953125 	0.5 	39.4973 	-0.0308305 	-5.25576e-19
0.59375 	-0.953125 	0.5 	39.497 	-0.0354827 	4.0083e-19
0.609375 	-0.953125 	0.5 	39.4963 	-0.0404945 	-1.71136e-19
0.625 	-0.953125 	0.5 	39.4965 	-0.045314 	-6.17133e-19
0.640625 	-0.953125 	0.5 	39.4963 	-0.0503069 	-3.79575e-19
0.65625 	-0.953125 	0.5 	39.4969 	-0.0558906 	-3.0208e-21
0.671875 	-0.953125 	0.5 	39.4968 	-0.0606433 	8.4469e-19
0.6875 	-0.953125 	0.5 	39.497 	-0.0659132 	9.04521e-19
0.703125 	-0.953125 	0.5 	39.4969 	-0.0711071 	9.56652e-19
0.71875 	-0.953125 	0.5 	39.4965 	-0.0767374 	-5.60768e-19
0.734375 	-0.953125 	0.5 	39.4972 	-0.0825088 	-4.16213e-19
0.75 	-0.953125 	0.5 	39.4981 	-0.0878721 	-3.46217e-19
0.765625 	-0.953125 	0.5 	39.4995 	-0.0930935 	6.30808e-19
0.78125 	-0.953125 	0.5 	39.5007 	-0.0978426 	-3.72306e-20
0.796875 	-0.953125 	0.5 	39.5019 	-0.10257 	-6.1406e-19
0.8125 	-0.953125 	0.5 	39.5033 	-0.107983 	-1.37826e-19
0.828125 	-0.953125 	0.5 	39.5046 	-0.113474 	4.01387e-20
0.84375 	-0.953125 	0.5 	39.5064 	-0.118676 	3.08897e-19
0.859375 	-0.953125 	0.5 	39.508 	-0.12368 	6.82375e-20
0.875 	-0.953125 	0.5 	39.5103 	-0.128583 	-3.3533e-19
0.890625 	-0.953125 	0.5 	39.5125 	-0.134692 	-7.41489e-19
0.90625 	-0.953125 	0.5 	39.5138 	-0.140489 	1.19725e-18
0.921875 	-0.953125 	0.5 	39.5156 	-0.145043 	-3.10615e-19
0.9375 	-0.953125 	0.5 	39.5178 	-0.149965 	-6.98994e-20
0.953125 	-0.953125 	0.5 	39.5209 	-0.156687 	-4.02237e-20
0.96875 	-0.953125 	0.5 	39.5234 	-0.159939 	-3.16108e-19
0.984375 	-0.953125 	0.5 	39.5258 	-0.164404 	-9.33501e-19
1 	-0.953125 	0.5 	39.529 	-0.169406 	-1.13073e-18
1.01562 	-0.953125 	0.5 	39.5318 	-0.174685 	6.42396e-19
1.03125 	-0.953125 	0.5 	39.5344 	-0.179504 	1.70869e-19
1.04688 	-0.953125 	0.5 	39.5376 	-0.183828 	3.88355e-19
1.0625 	-0.953125 	0.5 	39.541 	-0.18816 	2.21895e-18
1.07812 	-0.953125 	0.5 	39.5441 	-0.192434 	2.36991e-19
1.09375 	-0.953125 	0.5 	39.5473 	-0.197456 	-2.21266e-20
1.10938 	-0.953125 	0.5 	39.5511 	-0.200911 	-1.05324e-19
1.125 	-0.953125 	0.5 	39.555 	-0.204873 	-1.71386e-19
1.14062 	-0.953125 	0.5 	39.5591 	-0.20895 	-1.56616e-19
1.15625 	-0.953125 	0.5 	39.5628 	-0.213094 	-6.66759e-20
1.17188 	-0.953125 	0.5 	39.5667 	-0.216668 	4.25226e-19
1.1875 	-0.953125 	0.5 	39.5696 	-0.219725 	3.3963e-18
1.20312 	-0.953125 	0.5 	39.5739 	-0.223583 	-1.76298e-18
1.21875 	-0.953125 	0.5 	39.5779 	-0.227755 	-3.32011e-18
1.23438 	-0.953125 	0.5 	39.5821 	-0.231244 	-9.52473e-19
1.25 	-0.953125 	0.5 	39.5864 	-0.234978 	-1.33835e-18
1.26562 	-0.953125 	0.5 	39.5901 	-0.237844 	-1.05334e-18
1.28125 	-0.953125 	0.5 	39.5938 	-0.24071 	-7.68323e-19
1.29688 	-0.953125 	0.5 	39.5975 	-0.243577 	-4.8331e-19
1.3125 	-0.953125 	0.5 	39.6017 	-0.24618 	-2.49354e-19
1.32812 	-0.953125 	0.5 	39.6067 	-0.248384 	-1.06812e-19
1.34375 	-0.953125 	0.5 	39.6116 	-0.250588 	3.57307e-20
1.35938 	-0.953125 	0.5 	39.616 	-0.253224 	1.06886e-19
1.375 	-0.953125 	0.5 	39.621 	-0.255913 	-9.91836e-21
1.39062 	-0.953125 	0.5 	39.6252 	-0.259117 	-4.51934e-20
1.40625 	-0.953125 	0.5 	39.6297 	-0.260848 	1.39601e-18
1.42188 	-0.953125 	0.5 	39.6345 	-0.263089 	-2.28867e-19
1.4375 	-0.953125 	0.5 	39.6393 	-0.265751 	-1.44462e-18
1.45312 	-0.953125 	0.5 	39.6438 	-0.267524 	-1.59543e-18
1.46875 	-0.953125 	0.5 	39.6482 	-0.269079 	-1.26367e-18
1.48438 	-0.953125 	0.5 	39.6525 	-0.27045 	-4.76229e-19
-0.5 	-0.9375 	0.5 	39.6143 	0.216972 	1.44161e-18
-0.484375 	-0.9375 	0.5 	39.6109 	0.214274 	2.99487e-18
-0.46875 	-0.9375 	0.5 	39.6075 	0.211567 	6.13601e-19
-0.453125 	-0.9375 	0.5 	39.6044 	0.208761 	5.19538e-19
-0.4375 	-0.9375 	0.5 	39.6011 	0.20603 	-1.09178e-18
-0.421875 	-0.9375 	0.5 	39.5978 	0.203229 	9.81387e-19
-0.40625 	-0.9375 	0.5 	39.5948 	0.200343 	1.52313e-18
-0.390625 	-0.9375 	0.5 	39.592 	0.197035 	3.78722e-19
-0.375 	-0.9375 	0.5 	39.5891 	0.194057 	2.48905e-19
-0.359375 	-0.9375 	0.5 	39.5862 	0.190732 	1.21987e-19
-0.34375 	-0.9375 	0.5 	39.5833 	0.187733 	-1.51384e-19
-0.328125 	-0.9375 	0.5 	39.5807 	0.184632 	-2.56444e-19
-0.3125 	-0.9375 	0.5 	39.5778 	0.181487 	-1.98265e-19
-0.296875 	-0.9375 	0.5 	39.575 	0.178266 	-2.39559e-19
-0.28125 	-0.9375 	0.5 	39.5727 	0.174857 	9.21496e-19
-0.265625 	-0.9375 	0.5 	39.5706 	0.171432 	1.41739e-18
-0.25 	-0.9375 	0.5 	39.5684 	0.167995 	1.4214e-18
-0.234375 	-0.9375 	0.5 	39.5656 	0.164556 	1.06129e-18
-0.21875 	-0.9375 	0.5 	39.5627 	0.161316 	1.65392e-18
-0.203125 	-0.9375 	0.5 	39.5598 	0.15812 	7.88742e-19
-0.1875 	-0.9375 	0.5 	39.5586 	0.154891 	3.17889e-18
-0.171875 	-0.9375 	0.5 	39.5565 	0.151323 	1.75728e-18
-0.15625 	-0.9375 	0.5 	39.5543 	0.14778 	-1.28752e-19
-0.140625 	-0.9375 	0.5 	39.5524 	0.144323 	7.21453e-19
-0.125 	-0.9375 	0.5 	39.5505 	0.140652 	2.38427e-18
-0.109375 	-0.9375 	0.5 	39.5484 	0.137142 	-7.8092e-19
-0.09375 	-0.9375 	0.5 	39.5468 	0.13356 	1.36348e-19
-0.078125 	-0.9375 	0.5 	39.5449 	0.130242 	1.04668e-18
-0.0625 	-0.9375 	0.5 	39.5433 	0.126721 	-9.30581e-20
-0.046875 	-0.9375 	0.5 	39.5417 	0.123074 	-1.00369e-19
-0.03125 	-0.9375 	0.5 	39.5403 	0.119732 	-2.05534e-19