-0.5 	-1 	0.5 	-9.05518
-0.484375 	-1 	0.5 	-9.11249
-0.46875 	-1 	0.5 	-9.16777
-0.453125 	-1 	0.5 	-9.24062
-0.4375 	-1 	0.5 	-9.3148
-0.421875 	-1 	0.5 	-9.38865
-0.40625 	-1 	0.5 	-9.47145
-0.390625 	-1 	0.5 	-9.53389
-0.375 	-1 	0.5 	-9.62073
-0.359375 	-1 	0.5 	-9.69072
-0.34375 	-1 	0.5 	-9.80675
-0.328125 	-1 	0.5 	-9.91323
-0.3125 	-1 	0.5 	-10.0509
-0.296875 	-1 	0.5 	-10.1715
-0.28125 	-1 	0.5 	-10.2374
-0.265625 	-1 	0.5 	-10.4141
-0.25 	-1 	0.5 	-10.5532
-0.234375 	-1 	0.5 	-10.6737
-0.21875 	-1 	0.5 	-10.7994
-0.203125 	-1 	0.5 	-10.9537
-0.1875 	-1 	0.5 	-11.1264
-0.171875 	-1 	0.5 	-11.2632
-0.15625 	-1 	0.5 	-11.4272
-0.140625 	-1 	0.5 	-11.5488
-0.125 	-1 	0.5 	-11.7029
-0.109375 	-1 	0.5 	-11.8702
-0.09375 	-1 	0.5 	-12.0222
-0.078125 	-1 	0.5 	-12.1962
-0.0625 	-1 	0.5 	-12.3651
-0.046875 	-1 	0.5 	-12.5159
-0.03125 	-1 	0.5 	-12.689
-0.015625 	-1 	0.5 	-12.8542
0 	-1 	0.5 	-12.997
0.015625 	-1 	0.5 	-13.1635
0.03125 	-1 	0.5 	-13.3249
0.046875 	-1 	0.5 	-13.485
0.0625 	-1 	0.5 	-13.6436
0.078125 	-1 	0.5 	-13.7941
0.09375 	-1 	0.5 	-13.9144
0.109375 	-1 	0.5 	-14.1038
0.125 	-1 	0.5 	-14.2018
0.140625 	-1 	0.5 	-14.3275
0.15625 	-1 	0.5 	-14.4546
0.171875 	-1 	0.5 	-14.5882
0.1875 	-1 	0.5 	-14.7176
0.203125 	-1 	0.5 	-14.8261
0.21875 	-1 	0.5 	-14.9336
0.234375 	-1 	0.5 	-15.0381
0.25 	-1 	0.5 	-15.136
0.265625 	-1 	0.5 	-15.2338
0.28125 	-1 	0.5 	-15.3158
0.296875 	-1 	0.5 	-15.3868
0.3125 	-1 	0.5 	-15.4578
0.328125 	-1 	0.5 	-15.5402
0.34375 	-1 	0.5 	-15.5706
0.359375 	-1 	0.5 	-15.6151
0.375 	-1 	0.5 	-15.6804
0.390625 	-1 	0.5 	-15.7092
0.40625 	-1 	0.5 	-15.7312
0.421875 	-1 	0.5 	-15.7448
0.4375 	-1 	0.5 	-15.7626
0.453125 	-1 	0.5 	-15.7737
0.46875 	-1 	0.5 	-15.7867
0.484375 	-1 	0.5 	-15.7924
0.5 	-1 	0.5 	-15.7751
0.515625 	-1 	0.5 	-15.7694
0.53125 	-1 	0.5 	-15.739
0.546875 	-1 	0.5 	-15.7117
0.5625 	-1 	0.5 	-15.6801
0.578125 	-1 	0.5 	-15.6416
0.59375 	-1 	0.5 	-15.6185
0.609375 	-1 	0.5 	-15.5754
0.625 	-1 	0.5 	-15.5215
0.640625 	-1 	0.5 	-15.4613
0.65625 	-1 	0.5 	-15.4095
0.671875 	-1 	0.5 	-15.3575
0.6875 	-1 	0.5 	-15.302
0.703125 	-1 	0.5 	-15.2429
0.71875 	-1 	0.5 	-15.169
0.734375 	-1 	0.5 	-15.0998
0.75 	-1 	0.5 	-15.0384
0.765625 	-1 	0.5 	-14.9831
0.78125 	-1 	0.5 	-14.9051
0.796875 	-1 	0.5 	-14.8319
0.8125 	-1 	0.5 	-14.7457
0.828125 	-1 	0.5 	-14.6854
0.84375 	-1 	0.5 	-14.5973
0.859375 	-1 	0.5 	-14.5456
0.875 	-1 	0.5 	-14.4736
0.890625 	-1 	0.5 	-14.3907
0.90625 	-1 	0.5 	-14.3092
0.921875 	-1 	0.5 	-14.2444
0.9375 	-1 	0.5 	-14.1724
0.953125 	-1 	0.5 	-14.1
0.96875 	-1 	0.5 	-14.0273
0.984375 	-1 	0.5 	-13.9673
1 	-1 	0.5 	-13.9041
1.01562 	-1 	0.5 	-13.8285
1.03125 	-1 	0.5 	-13.763
1.04688 	-1 	0.5 	-13.7077
1.0625 	-1 	0.5 	-13.6451
1.07812 	-1 	0.5 	-13.5853
1.09375 	-1 	0.5 	-13.5375
1.10938 	-1 	0.5 	-13.4896
1.125 	-1 	0.5 	-13.4357
1.14062 	-1 	0.5 	-13.3646
1.15625 	-1 	0.5 	-13.3168
1.17188 	-1 	0.5 	-13.2646
1.1875 	-1 	0.5 	-13.2166
1.20312 	-1 	0.5 	-13.1743
1.21875 	-1 	0.5 	-13.1292
1.23438 	-1 	0.5 	-13.0971
1.25 	-1 	0.5 	-13.0726
1.26562 	-1 	0.5 	-13.043
1.28125 	-1 	0.5 	-13.0166
1.29688 	-1 	0.5 	-12.9855
1.3125 	-1 	0.5 	-12.9541
1.32812 	-1 	0.5 	-12.9182
1.34375 	-1 	0.5 	-12.8825
1.35938 	-1 	0.5 	-12.8734
1.375 	-1 	0.5 	-12.8794
1.39062 	-1 	0.5 	-12.868
1.40625 	-1 	0.5 	-12.8372
1.42188 	-1 	0.5 	-12.7869
1.4375 	-1 	0.5 	-12.7807
1.45312 	-1 	0.5 	-12.7935
1.46875 	-1 	0.5 	-12.7927
1.48438 	-1 	0.5 	-12.7922
-0.5 	-0.984375 	0.5 	-8.91664
-0.484375 	-0.984375 	0.5 	-8.97699
-0.46875 	-0.984375 	0.5 	-9.02413
-0.453125 	-0.984375 	0.5 	-9.10516
-0.4375 	-0.984375 	0.5 	-9.18617
-0.421875 	-0.984375 	0.5 	-9.26725
-0.40625 	-0.984375 	0.5 	-9.35524
-0.390625 	-0.984375 	0.5 	-9.43594
-0.375 	-0.984375 	0.5 	-9.51526
-0.359375 	-0.984375 	0.5 	-9.61184
-0.34375 	-0.984375 	0.5 	-9.70432
-0.328125 	-0.984375 	0.5 	-9.819
-0.3125 	-0.984375 	0.5 	-9.96295
-0.296875 	-0.984375 	0.5 	-10.0332
-0.28125 	-0.984375 	0.5 	-10.162
-0.265625 	-0.984375 	0.5 	-10.3057
-0.25 	-0.984375 	0.5 	-10.4409
-0.234375 	-0.984375 	0.5 	-10.5795
-0.21875 	-0.984375 	0.5 	-10.7211
-0.203125 	-0.984375 	0.5 	-10.8932
-0.1875 	-0.984375 	0.5 	-11.0611
-0.171875 	-0.984375 	0.5 	-11.2162
-0.15625 	-0.984375 	0.5 	-11.3636
-0.140625 	-0.984375 	0.5 	-11.4889
-0.125 	-0.984375 	0.5 	-11.6502
-0.109375 	-0.984375 	0.5 	-11.8354
-0.09375 	-0.984375 	0.5 	-11.9991
-0.078125 	-0.984375 	0.5 	-12.1785
-0.0625 	-0.984375 	0.5 	-12.3506
-0.046875 	-0.984375 	0.5 	-12.5168
-0.03125 	-0.984375 	0.5 	-12.6869
-0.015625 	-0.984375 	0.5 	-12.857
0 	-0.984375 	0.5 	-13.0207
0.015625 	-0.984375 	0.5 	-13.1755
0.03125 	-0.984375 	0.5 	-13.3475
0.046875 	-0.984375 	0.5 	-13.5277
0.0625 	-0.984375 	0.5 	-13.6827
0.078125 	-0.984375 	0.5 	-13.8564
0.09375 	-0.984375 	0.5 	-14.0159
0.109375 	-0.984375 	0.5 	-14.171
0.125 	-0.984375 	0.5 	-14.2799
0.140625 	-0.984375 	0.5 	-14.387
0.15625 	-0.984375 	0.5 	-14.5438
0.171875 	-0.984375 	0.5 	-14.688
0.1875 	-0.984375 	0.5 	-14.8143
0.203125 	-0.984375 	0.5 	-14.9394
0.21875 	-0.984375 	0.5 	-15.0482
0.234375 	-0.984375 	0.5 	-15.1536
0.25 	-0.984375 	0.5 	-15.2615
0.265625 	-0.984375 	0.5 	-15.3569
0.28125 	-0.984375 	0.5 	-15.4496
0.296875 	-0.984375 	0.5 	-15.5044
0.3125 	-0.984375 	0.5 	-15.5979
0.328125 	-0.984375 	0.5 	-15.6648
0.34375 	-0.984375 	0.5 	-15.712
0.359375 	-0.984375 	0.5 	-15.7508
0.375 	-0.984375 	0.5 	-15.8043
0.390625 	-0.984375 	0.5 	-15.8375
0.40625 	-0.984375 	0.5 	-15.8622
0.421875 	-0.984375 	0.5 	-15.8778
0.4375 	-0.984375 	0.5 	-15.8851
0.453125 	-0.984375 	0.5 	-15.9005
0.46875 	-0.984375 	0.5 	-15.9132
0.484375 	-0.984375 	0.5 	-15.9077
0.5 	-0.984375 	0.5 	-15.8879
0.515625 	-0.984375 	0.5 	-15.8857
0.53125 	-0.984375 	0.5 	-15.8784
0.546875 	-0.984375 	0.5 	-15.8191
0.5625 	-0.984375 	0.5 	-15.7894
0.578125 	-0.984375 	0.5 	-15.7555
0.59375 	-0.984375 	0.5 	-15.7124
0.609375 	-0.984375 	0.5 	-15.6623
0.625 	-0.984375 	0.5 	-15.6084
0.640625 	-0.984375 	0.5 	-15.5525
0.65625 	-0.984375 	0.5 	-15.5107
0.671875 	-0.984375 	0.5 	-15.4485
0.6875 	-0.984375 	0.5 	-15.3813
0.703125 	-0.984375 	0.5 	-15.3016
0.71875 	-0.984375 	0.5 	-15.2349
0.734375 	-0.984375 	0.5 	-15.1598
0.75 	-0.984375 	0.5 	-15.088
0.765625 	-0.984375 	0.5 	-15.0291
0.78125 	-0.984375 	0.5 	-14.9518
0.796875 	-0.984375 	0.5 	-14.8741
0.8125 	-0.984375 	0.5 	-14.8004
0.828125 	-0.984375 	0.5 	-14.7073
0.84375 	-0.984375 	0.5 	-14.6451
0.859375 	-0.984375 	0.5 	-14.5788
0.875 	-0.984375 	0.5 	-14.4964
0.890625 	-0.984375 	0.5 	-14.4218
0.90625 	-0.984375 	0.5 	-14.3305
0.921875 	-0.984375 	0.5 	-14.2531
0.9375 	-0.984375 	0.5 	-14.1812
0.953125 	-0.984375 	0.5 	-14.1056
0.96875 	-0.984375 	0.5 	-14.0301
0.984375 	-0.984375 	0.5 	-13.9584
1 	-0.984375 	0.5 	-13.8872
1.01562 	-0.984375 	0.5 	-13.8156
1.03125 	-0.984375 	0.5 	-13.7481
1.04688 	-0.984375 	0.5 	-13.6956
1.0625 	-0.984375 	0.5 	-13.6359
1.07812 	-0.984375 	0.5 	-13.5639
1.09375 	-0.984375 	0.5 	-13.5116
1.10938 	-0.984375 	0.5 	-13.462
1.125 	-0.984375 	0.5 	-13.4113
1.14062 	-0.984375 	0.5 	-13.3425
1.15625 	-0.984375 	0.5 	-13.2867
1.17188 	-0.984375 	0.5 	-13.2344
1.1875 	-0.984375 	0.5 	-13.184
1.20312 	-0.984375 	0.5 	-13.138
1.21875 	-0.984375 	0.5 	-13.0999
1.23438 	-0.984375 	0.5 	-13.0777
1.25 	-0.984375 	0.5 	-13.0526
1.26562 	-0.984375 	0.5 	-12.9994
1.28125 	-0.984375 	0.5 	-12.971
1.29688 	-0.984375 	0.5 	-12.9421
1.3125 	-0.984375 	0.5 	-12.9122
1.32812 	-0.984375 	0.5 	-12.8692
1.34375 	-0.984375 	0.5 	-12.8375
1.35938 	-0.984375 	0.5 	-12.8268
1.375 	-0.984375 	0.5 	-12.8176
1.39062 	-0.984375 	0.5 	-12.8211
1.40625 	-0.984375 	0.5 	-12.7862
1.42188 	-0.984375 	0.5 	-12.7647
1.4375 	-0.984375 	0.5 	-12.7547
1.45312 	-0.984375 	0.5 	-12.7342
1.46875 	-0.984375 	0.5 	-12.7437
1.48438 	-0.984375 	0.5 	-12.7551
-0.5 	-0.96875 	0.5 	-8.77826
-0.484375 	-0.96875 	0.5 	-8.83694
-0.46875 	-0.96875 	0.5 	-8.87662
-0.453125 	-0.96875 	0.5 	-8.97158
-0.4375 	-0.96875 	0.5 	-9.04811
-0.421875 	-0.96875 	0.5 	-9.15114
-0.40625 	-0.96875 	0.5 	-9.22843
-0.390625 	-0.96875 	0.5 	-9.32533
-0.375 	-0.96875 	0.5 	-9.40587
-0.359375 	-0.96875 	0.5 	-9.50621
-0.34375 	-0.96875 	0.5 	-9.62799
-0.328125 	-0.96875 	0.5 	-9.74753
-0.3125 	-0.96875 	0.5 	-9.85718
-0.296875 	-0.96875 	0.5 	-9.9807
-0.28125 	-0.96875 	0.5 	-10.0894
-0.265625 	-0.96875 	0.5 	-10.21
-0.25 	-0.96875 	0.5 	-10.3605
-0.234375 	-0.96875 	0.5 	-10.4862
-0.21875 	-0.96875 	0.5 	-10.6419
-0.203125 	-0.96875 	0.5 	-10.8052
-0.1875 	-0.96875 	0.5 	-10.978
-0.171875 	-0.96875 	0.5 	-11.1521
-0.15625 	-0.96875 	0.5 	-11.3169
-0.140625 	-0.96875 	0.5 	-11.4769
-0.125 	-0.96875 	0.5 	-11.6362
-0.109375 	-0.96875 	0.5 	-11.7979
-0.09375 	-0.96875 	0.5 	-11.986
-0.078125 	-0.96875 	0.5 	-12.1664
-0.0625 	-0.96875 	0.5 	-12.345
-0.046875 	-0.96875 	0.5 	-12.5177
-0.03125 	-0.96875 	0.5 	-12.6695
-0.015625 	-0.96875 	0.5 	-12.8665
0 	-0.96875 	0.5 	-13.0446
0.015625 	-0.96875 	0.5 	-13.2308
0.03125 	-0.96875 	0.5 	-13.3906
0.046875 	-0.96875 	0.5 	-13.5685
0.0625 	-0.96875 	0.5 	-13.7699
0.078125 	-0.96875 	0.5 	-13.9182
0.09375 	-0.96875 	0.5 	-14.1073
0.109375 	-0.96875 	0.5 	-14.2326
0.125 	-0.96875 	0.5 	-14.3766
0.140625 	-0.96875 	0.5 	-14.5059
0.15625 	-0.96875 	0.5 	-14.629
0.171875 	-0.96875 	0.5 	-14.7829
0.1875 	-0.96875 	0.5 	-14.9149
0.203125 	-0.96875 	0.5 	-15.0541
0.21875 	-0.96875 	0.5 	-15.169
0.234375 	-0.96875 	0.5 	-15.2718
0.25 	-0.96875 	0.5 	-15.3864
0.265625 	-0.96875 	0.5 	-15.4805
0.28125 	-0.96875 	0.5 	-15.5867
0.296875 	-0.96875 	0.5 	-15.6623
0.3125 	-0.96875 	0.5 	-15.7064
0.328125 	-0.96875 	0.5 	-15.7843
0.34375 	-0.96875 	0.5 	-15.8626
0.359375 	-0.96875 	0.5 	-15.8914
0.375 	-0.96875 	0.5 	-15.9377
0.390625 	-0.96875 	0.5 	-15.963
0.40625 	-0.96875 	0.5 	-15.9901
0.421875 	-0.96875 	0.5 	-16.0039
0.4375 	-0.96875 	0.5 	-16.0151
0.453125 	-0.96875 	0.5 	-16.047
0.46875 	-0.96875 	0.5 	-16.0569
0.484375 	-0.96875 	0.5 	-16.0529
0.5 	-0.96875 	0.5 	-16.0164
0.515625 	-0.96875 	0.5 	-16.0069
0.53125 	-0.96875 	0.5 	-15.9682
0.546875 	-0.96875 	0.5 	-15.9243
0.5625 	-0.96875 	0.5 	-15.8858
0.578125 	-0.96875 	0.5 	-15.8476
0.59375 	-0.96875 	0.5 	-15.8028
0.609375 	-0.96875 	0.5 	-15.7479
0.625 	-0.96875 	0.5 	-15.6943
0.640625 	-0.96875 	0.5 	-15.6509
0.65625 	-0.96875 	0.5 	-15.5842
0.671875 	-0.96875 	0.5 	-15.5217
0.6875 	-0.96875 	0.5 	-15.4509
0.703125 	-0.96875 	0.5 	-15.3758
0.71875 	-0.96875 	0.5 	-15.3064
0.734375 	-0.96875 	0.5 	-15.2355
0.75 	-0.96875 	0.5 	-15.1475
0.765625 	-0.96875 	0.5 	-15.0774
0.78125 	-0.96875 	0.5 	-14.9981
0.796875 	-0.96875 	0.5 	-14.909
0.8125 	-0.96875 	0.5 	-14.8477
0.828125 	-0.96875 	0.5 	-14.7702
0.84375 	-0.96875 	0.5 	-14.6705
0.859375 	-0.96875 	0.5 	-14.5963
0.875 	-0.96875 	0.5 	-14.5092
0.890625 	-0.96875 	0.5 	-14.4275
0.90625 	-0.96875 	0.5 	-14.3448
0.921875 	-0.96875 	0.5 	-14.2821
0.9375 	-0.96875 	0.5 	-14.1957
0.953125 	-0.96875 	0.5 	-14.1117
0.96875 	-0.96875 	0.5 	-14.0288
0.984375 	-0.96875 	0.5 	-13.9545
1 	-0.96875 	0.5 	-13.8782
1.01562 	-0.96875 	0.5 	-13.806
1.03125 	-0.96875 	0.5 	-13.7362
1.04688 	-0.96875 	0.5 	-13.6679
1.0625 	-0.96875 	0.5 	-13.61
1.07812 	-0.96875 	0.5 	-13.5445
1.09375 	-0.96875 	0.5 	-13.4834
1.10938 	-0.96875 	0.5 	-13.4292
1.125 	-0.96875 	0.5 	-13.3695
1.14062 	-0.96875 	0.5 	-13.3119
1.15625 	-0.96875 	0.5 	-13.2526
1.17188 	-0.96875 	0.5 	-13.2016
1.1875 	-0.96875 	0.5 	-13.1507
1.20312 	-0.96875 	0.5 	-13.1015
1.21875 	-0.96875 	0.5 	-13.0674
1.23438 	-0.96875 	0.5 	-13.0394
1.25 	-0.96875 	0.5 	-13.0114
1.26562 	-0.96875 	0.5 	-12.961
1.28125 	-0.96875 	0.5 	-12.9277
1.29688 	-0.96875 	0.5 	-12.8938
1.3125 	-0.96875 	0.5 	-12.8628
1.32812 	-0.96875 	0.5 	-12.8325
1.34375 	-0.96875 	0.5 	-12.7926
1.35938 	-0.96875 	0.5 	-12.7795
1.375 	-0.96875 	0.5 	-12.7706
1.39062 	-0.96875 	0.5 	-12.7617
1.40625 	-0.96875 	0.5 	-12.7487
1.42188 	-0.96875 	0.5 	-12.721
1.4375 	-0.96875 	0.5 	-12.7023
1.45312 	-0.96875 	0.5 	-12.6855
1.46875 	-0.96875 	0.5 	-12.6946
1.48438 	-0.96875 	0.5 	-12.6956
-0.5 	-0.953125 	0.5 	-8.64003
-0.484375 	-0.953125 	0.5 	-8.67242
-0.46875 	-0.953125 	0.5 	-8.74458
-0.453125 	-0.953125 	0.5 	-8.83622
-0.4375 	-0.953125 	0.5 	-8.93191
-0.421875 	-0.953125 	0.5 	-9.04588
-0.40625 	-0.953125 	0.5 	-9.09447
-0.390625 	-0.953125 	0.5 	-9.18786
-0.375 	-0.953125 	0.5 	-9.26924
-0.359375 	-0.953125 	0.5 	-9.37486
-0.34375 	-0.953125 	0.5 	-9.50096
-0.328125 	-0.953125 	0.5 	-9.61938
-0.3125 	-0.953125 	0.5 	-9.71101
-0.296875 	-0.953125 	0.5 	-9.85254
-0.28125 	-0.953125 	0.5 	-10.0005
-0.265625 	-0.953125 	0.5 	-10.1128
-0.25 	-0.953125 	0.5 	-10.2486
-0.234375 	-0.953125 	0.5 	-10.4161
-0.21875 	-0.953125 	0.5 	-10.5649
-0.203125 	-0.953125 	0.5 	-10.7219
-0.1875 	-0.953125 	0.5 	-10.8976
-0.171875 	-0.953125 	0.5 	-11.1003
-0.15625 	-0.953125 	0.5 	-11.2861
-0.140625 	-0.953125 	0.5 	-11.4316
-0.125 	-0.953125 	0.5 	-11.5902
-0.109375 	-0.953125 	0.5 	-11.7632
-0.09375 	-0.953125 	0.5 	-11.9898
-0.078125 	-0.953125 	0.5 	-12.1713
-0.0625 	-0.953125 	0.5 	-12.3341
-0.046875 	-0.953125 	0.5 	-12.5322
-0.03125 	-0.953125 	0.5 	-12.7115
-0.015625 	-0.953125 	0.5 	-12.8694
0 	-0.953125 	0.5 	-13.0693
0.015625 	-0.953125 	0.5 	-13.2468
0.03125 	-0.953125 	0.5 	-13.4443
0.046875 	-0.953125 	0.5 	-13.6289
0.0625 	-0.953125 	0.5 	-13.8226
0.078125 	-0.953125 	0.5 	-13.9813
0.09375 	-0.953125 	0.5 	-14.1407
0.109375 	-0.953125 	0.5 	-14.2851
0.125 	-0.953125 	0.5 	-14.4814
0.140625 	-0.953125 	0.5 	-14.6271
0.15625 	-0.953125 	0.5 	-14.8111
0.171875 	-0.953125 	0.5 	-14.8858
0.1875 	-0.953125 	0.5 	-15.0564
0.203125 	-0.953125 	0.5 	-15.1911
0.21875 	-0.953125 	0.5 	-15.2954
0.234375 	-0.953125 	0.5 	-15.3942
0.25 	-0.953125 	0.5 	-15.521
0.265625 	-0.953125 	0.5 	-15.6333
0.28125 	-0.953125 	0.5 	-15.7252
0.296875 	-0.953125 	0.5 	-15.7767
0.3125 	-0.953125 	0.5 	-15.849
0.328125 	-0.953125 	0.5 	-15.9035
0.34375 	-0.953125 	0.5 	-15.9714
0.359375 	-0.953125 	0.5 	-16.0596
0.375 	-0.953125 	0.5 	-16.0991
0.390625 	-0.953125 	0.5 	-16.1225
0.40625 	-0.953125 	0.5 	-16.1406
0.421875 	-0.953125 	0.5 	-16.1551
0.4375 	-0.953125 	0.5 	-16.1702
0.453125 	-0.953125 	0.5 	-16.1873
0.46875 	-0.953125 	0.5 	-16.1811
0.484375 	-0.953125 	0.5 	-16.1667
0.5 	-0.953125 	0.5 	-16.1526
0.515625 	-0.953125 	0.5 	-16.1086
0.53125 	-0.953125 	0.5 	-16.0842
0.546875 	-0.953125 	0.5 	-16.0483
0.5625 	-0.953125 	0.5 	-16.0089
0.578125 	-0.953125 	0.5 	-15.9724
0.59375 	-0.953125 	0.5 	-15.8895
0.609375 	-0.953125 	0.5 	-15.8523
0.625 	-0.953125 	0.5 	-15.8059
0.640625 	-0.953125 	0.5 	-15.7739
0.65625 	-0.953125 	0.5 	-15.6975
0.671875 	-0.953125 	0.5 	-15.59
0.6875 	-0.953125 	0.5 	-15.5294
0.703125 	-0.953125 	0.5 	-15.4452
0.71875 	-0.953125 	0.5 	-15.3817
0.734375 	-0.953125 	0.5 	-15.2947
0.75 	-0.953125 	0.5 	-15.2128
0.765625 	-0.953125 	0.5 	-15.1375
0.78125 	-0.953125 	0.5 	-15.0554
0.796875 	-0.953125 	0.5 	-14.9605
0.8125 	-0.953125 	0.5 	-14.8893
0.828125 	-0.953125 	0.5 	-14.8156
0.84375 	-0.953125 	0.5 	-14.7009
0.859375 	-0.953125 	0.5 	-14.5995
0.875 	-0.953125 	0.5 	-14.5205
0.890625 	-0.953125 	0.5 	-14.4416
0.90625 	-0.953125 	0.5 	-14.3574
0.921875 	-0.953125 	0.5 	-14.2961
0.9375 	-0.953125 	0.5 	-14.2035
0.953125 	-0.953125 	0.5 	-14.114
0.96875 	-0.953125 	0.5 	-14.0208
0.984375 	-0.953125 	0.5 	-13.9513
1 	-0.953125 	0.5 	-13.8772
1.01562 	-0.953125 	0.5 	-13.7984
1.03125 	-0.953125 	0.5 	-13.7279
1.04688 	-0.953125 	0.5 	-13.6552
1.0625 	-0.953125 	0.5 	-13.5848
1.07812 	-0.953125 	0.5 	-13.5209
1.09375 	-0.953125 	0.5 	-13.4556
1.10938 	-0.953125 	0.5 	-13.3922
1.125 	-0.953125 	0.5 	-13.3394
1.14062 	-0.953125 	0.5 	-13.2768
1.15625 	-0.953125 	0.5 	-13.2124
1.17188 	-0.953125 	0.5 	-13.1497
1.1875 	-0.953125 	0.5 	-13.1116
1.20312 	-0.953125 	0.5 	-13.0595
1.21875 	-0.953125 	0.5 	-13.0234
1.23438 	-0.953125 	0.5 	-13.027
1.25 	-0.953125 	0.5 	-12.9787
1.26562 	-0.953125 	0.5 	-12.9243
1.28125 	-0.953125 	0.5 	-12.876
1.29688 	-0.953125 	0.5 	-12.8284
1.3125 	-0.953125 	0.5 	-12.8114
1.32812 	-0.953125 	0.5 	-12.7727
1.34375 	-0.953125 	0.5 	-12.7486
1.35938 	-0.953125 	0.5 	-12.7319
1.375 	-0.953125 	0.5 	-12.7239
1.39062 	-0.953125 	0.5 	-12.716
1.40625 	-0.953125 	0.5 	-12.6919
1.42188 	-0.953125 	0.5 	-12.6692
1.4375 	-0.953125 	0.5 	-12.6588
1.45312 	-0.953125 	0.5 	-12.6483
1.46875 	-0.953125 	0.5 	-12.6439
1.48438 	-0.953125 	0.5 	-12.6493
-0.5 	-0.9375 	0.5 	-8.50424
-0.484375 	-0.9375 	0.5 	-8.57063
-0.46875 	-0.9375 	0.5 	-8.63701
-0.453125 	-0.9375 	0.5 	-8.69563
-0.4375 	-0.9375 	0.5 	-8.77091
-0.421875 	-0.9375 	0.5 	-8.8834
-0.40625 	-0.9375 	0.5 	-8.96051
-0.390625 	-0.9375 	0.5 	-9.04828
-0.375 	-0.9375 	0.5 	-9.13594
-0.359375 	-0.9375 	0.5 	-9.24435
-0.34375 	-0.9375 	0.5 	-9.36718
-0.328125 	-0.9375 	0.5 	-9.4872
-0.3125 	-0.9375 	0.5 	-9.56543
-0.296875 	-0.9375 	0.5 	-9.69969
-0.28125 	-0.9375 	0.5 	-9.85118
-0.265625 	-0.9375 	0.5 	-10.0213
-0.25 	-0.9375 	0.5 	-10.1662
-0.234375 	-0.9375 	0.5 	-10.3216
-0.21875 	-0.9375 	0.5 	-10.4805
-0.203125 	-0.9375 	0.5 	-10.6475
-0.1875 	-0.9375 	0.5 	-10.8609
-0.171875 	-0.9375 	0.5 	-11.0158
-0.15625 	-0.9375 	0.5 	-11.2448
-0.140625 	-0.9375 	0.5 	-11.4184
-0.125 	-0.9375 	0.5 	-11.5699
-0.109375 	-0.9375 	0.5 	-11.7207
-0.09375 	-0.9375 	0.5 	-11.9433
-0.078125 	-0.9375 	0.5 	-12.1745
-0.0625 	-0.9375 	0.5 	-12.357
-0.046875 	-0.9375 	0.5 	-12.526
-0.03125 	-0.9375 	0.5 	-12.7361
-0.015625 	-0.9375 	0.5 	-12.9154
0 	-0.9375 	0.5 	-13.0952
0.015625 	-0.9375 	0.5 	-13.3138
0.03125 	-0.9375 	0.5 	-13.4983
0.046875 	-0.9375 	0.5 	-13.724
0.0625 	-0.9375 	0.5 	-13.8796
0.078125 	-0.9375 	0.5 	-14.0443
0.09375 	-0.9375 	0.5 	-14.1941
0.109375 	-0.9375 	0.5 	-14.3651
0.125 	-0.9375 	0.5 	-14.5718
0.140625 	-0.9375 	0.5 	-14.7553
0.15625 	-0.9375 	0.5 	-14.8577
0.171875 	-0.9375 	0.5 	-15.0078
0.1875 	-0.9375 	0.5 	-15.1678
0.203125 	-0.9375 	0.5 	-15.3119
0.21875 	-0.9375 	0.5 	-15.4482
0.234375 	-0.9375 	0.5 	-15.5237
0.25 	-0.9375 	0.5 	-15.6601
0.265625 	-0.9375 	0.5 	-15.7727
0.28125 	-0.9375 	0.5 	-15.8824
0.296875 	-0.9375 	0.5 	-15.9449
0.3125 	-0.9375 	0.5 	-15.9846
0.328125 	-0.9375 	0.5 	-16.0563
0.34375 	-0.9375 	0.5 	-16.1104
0.359375 	-0.9375 	0.5 	-16.1745
0.375 	-0.9375 	0.5 	-16.24
0.390625 	-0.9375 	0.5 	-16.2736
0.40625 	-0.9375 	0.5 	-16.2894
0.421875 	-0.9375 	0.5 	-16.3038
0.4375 	-0.9375 	0.5 	-16.3301
0.453125 	-0.9375 	0.5 	-16.3443
0.46875 	-0.9375 	0.5 	-16.3338
0.484375 	-0.9375 	0.5 	-16.3152
0.5 	-0.9375 	0.5 	-16.2677
0.515625 	-0.9375 	0.5 	-16.2387
0.53125 	-0.9375 	0.5 	-16.1988
0.546875 	-0.9375 	0.5 	-16.1767
0.5625 	-0.9375 	0.5 	-16.1374
0.578125 	-0.9375 	0.5 	-16.0849
0.59375 	-0.9375 	0.5 	-16.0168
0.609375 	-0.9375 	0.5 	-15.9556
0.625 	-0.9375 	0.5 	-15.9117
0.640625 	-0.9375 	0.5 	-15.8703
0.65625 	-0.9375 	0.5 	-15.7897
0.671875 	-0.9375 	0.5 	-15.7025
0.6875 	-0.9375 	0.5 	-15.6079
0.703125 	-0.9375 	0.5 	-15.5384
0.71875 	-0.9375 	0.5 	-15.4599
0.734375 	-0.9375 	0.5 	-15.3708
0.75 	-0.9375 	0.5 	-15.2787
0.765625 	-0.9375 	0.5 	-15.1861
0.78125 	-0.9375 	0.5 	-15.1023
0.796875 	-0.9375 	0.5 	-15.0063
0.8125 	-0.9375 	0.5 	-14.917
0.828125 	-0.9375 	0.5 	-14.8294
0.84375 	-0.9375 	0.5 	-14.7315
0.859375 	-0.9375 	0.5 	-14.6285
0.875 	-0.9375 	0.5 	-14.537
0.890625 	-0.9375 	0.5 	-14.4313
0.90625 	-0.9375 	0.5 	-14.3653
0.921875 	-0.9375 	0.5 	-14.2725
0.9375 	-0.9375 	0.5 	-14.2048
0.953125 	-0.9375 	0.5 	-14.109
0.96875 	-0.9375 	0.5 	-14.0172
0.984375 	-0.9375 	0.5 	-13.9498
1 	-0.9375 	0.5 	-13.8773
1.01562 	-0.9375 	0.5 	-13.7893
1.03125 	-0.9375 	0.5 	-13.7081
1.04688 	-0.9375 	0.5 	-13.6301
1.0625 	-0.9375 	0.5 	-13.5584
1.07812 	-0.9375 	0.5 	-13.4866
1.09375 	-0.9375 	0.5 	-13.4212
1.10938 	-0.9375 	0.5 	-13.3568
1.125 	-0.9375 	0.5 	-13.3032
1.14062 	-0.9375 	0.5 	-13.2387
1.15625 	-0.9375 	0.5 	-13.174
1.17188 	-0.9375 	0.5 	-13.1213
1.1875 	-0.9375 	0.5 	-13.0592
1.20312 	-0.9375 	0.5 	-13.0181
1.21875 	-0.9375 	0.5 	-12.9799
1.23438 	-0.9375 	0.5 	-12.9537
1.25 	-0.9375 	0.5 	-12.9155
1.26562 	-0.9375 	0.5 	-12.8621
1.28125 	-0.9375 	0.5 	-12.8188
1.29688 	-0.9375 	0.5 	-12.7939
1.3125 	-0.9375 	0.5 	-12.7577
1.32812 	-0.9375 	0.5 	-12.7292
1.34375 	-0.9375 	0.5 	-12.7106
1.35938 	-0.9375 	0.5 	-12.6797
1.375 	-0.9375 	0.5 	-12.6582
1.39062 	-0.9375 	0.5 	-12.6581
1.40625 	-0.9375 	0.5 	-12.6368
1.42188 	-0.9375 	0.5 	-12.6066
1.4375 	-0.9375 	0.5 	-12.5985
1.45312 	-0.9375 	0.5 	-12.5925
1.46875 	-0.9375 	0.5 	-12.5871
1.48438 	-0.9375 	0.5 	-12.6047
-0.5 	-0.921875 	0.5 	-8.34318
-0.484375 	-0.921875 	0.5 	-8.41825
-0.46875 	-0.921875 	0.5 	-8.49109
-0.453125 	-0.921875 	0.5 	-8.53182
-0.4375 	-0.921875 	0.5 	-8.56186
-0.421875 	-0.921875 	0.5 	-8.70499
-0.40625 	-0.921875 	0.5 	-8.82399
-0.390625 	-0.921875 	0.5 	-8.93325
-0.375 	-0.921875 	0.5 	-9.03745
-0.359375 	-0.921875 	0.5 	-9.13968
-0.34375 	-0.921875 	0.5 	-9.24094
-0.328125 	-0.921875 	0.5 	-9.34958
-0.3125 	-0.921875 	0.5 	-9.49185
-0.296875 	-0.921875 	0.5 	-9.61318
-0.28125 	-0.921875 	0.5 	-9.73452
-0.265625 	-0.921875 	0.5 	-9.90001
-0.25 	-0.921875 	0.5 	-10.081
-0.234375 	-0.921875 	0.5 	-10.2584
-0.21875 	-0.921875 	0.5 	-10.3973
-0.203125 	-0.921875 	0.5 	-10.5023
-0.1875 	-0.921875 	0.5 	-10.7438
-0.171875 	-0.921875 	0.5 	-10.9313
-0.15625 	-0.921875 	0.5 	-11.1593
-0.140625 	-0.921875 	0.5 	-11.361
-0.125 	-0.921875 	0.5 	-11.5495
-0.109375 	-0.921875 	0.5 	-11.7448
-0.09375 	-0.921875 	0.5 	-11.9257
-0.078125 	-0.921875 	0.5 	-12.1491
-0.0625 	-0.921875 	0.5 	-12.3483
-0.046875 	-0.921875 	0.5 	-12.4667
-0.03125 	-0.921875 	0.5 	-12.7379
-0.015625 	-0.921875 	0.5 	-12.9262
0 	-0.921875 	0.5 	-13.0983
0.015625 	-0.921875 	0.5 	-13.337
0.03125 	-0.921875 	0.5 	-13.5395
0.046875 	-0.921875 	0.5 	-13.7389
0.0625 	-0.921875 	0.5 	-13.9082
0.078125 	-0.921875 	0.5 	-14.113
0.09375 	-0.921875 	0.5 	-14.2741
0.109375 	-0.921875 	0.5 	-14.4567
0.125 	-0.921875 	0.5 	-14.6476
0.140625 	-0.921875 	0.5 	-14.8156
0.15625 	-0.921875 	0.5 	-14.9661
0.171875 	-0.921875 	0.5 	-15.1166
0.1875 	-0.921875 	0.5 	-15.2671
0.203125 	-0.921875 	0.5 	-15.4342
0.21875 	-0.921875 	0.5 	-15.5324
0.234375 	-0.921875 	0.5 	-15.672
0.25 	-0.921875 	0.5 	-15.8248
0.265625 	-0.921875 	0.5 	-15.9109
0.28125 	-0.921875 	0.5 	-16.0164
0.296875 	-0.921875 	0.5 	-16.1193
0.3125 	-0.921875 	0.5 	-16.1791
0.328125 	-0.921875 	0.5 	-16.2357
0.34375 	-0.921875 	0.5 	-16.2832
0.359375 	-0.921875 	0.5 	-16.3359
0.375 	-0.921875 	0.5 	-16.3982
0.390625 	-0.921875 	0.5 	-16.4322
0.40625 	-0.921875 	0.5 	-16.438
0.421875 	-0.921875 	0.5 	-16.4766
0.4375 	-0.921875 	0.5 	-16.4828
0.453125 	-0.921875 	0.5 	-16.4944
0.46875 	-0.921875 	0.5 	-16.4837
0.484375 	-0.921875 	0.5 	-16.4607
0.5 	-0.921875 	0.5 	-16.4167
0.515625 	-0.921875 	0.5 	-16.384
0.53125 	-0.921875 	0.5 	-16.3693
0.546875 	-0.921875 	0.5 	-16.3304
0.5625 	-0.921875 	0.5 	-16.282
0.578125 	-0.921875 	0.5 	-16.2211
0.59375 	-0.921875 	0.5 	-16.1544
0.609375 	-0.921875 	0.5 	-16.0821
0.625 	-0.921875 	0.5 	-15.9789
0.640625 	-0.921875 	0.5 	-15.9324
0.65625 	-0.921875 	0.5 	-15.8631
0.671875 	-0.921875 	0.5 	-15.7906
0.6875 	-0.921875 	0.5 	-15.6848
0.703125 	-0.921875 	0.5 	-15.6007
0.71875 	-0.921875 	0.5 	-15.521
0.734375 	-0.921875 	0.5 	-15.4373
0.75 	-0.921875 	0.5 	-15.3398
0.765625 	-0.921875 	0.5 	-15.2407
0.78125 	-0.921875 	0.5 	-15.145
0.796875 	-0.921875 	0.5 	-15.0459
0.8125 	-0.921875 	0.5 	-14.932
0.828125 	-0.921875 	0.5 	-14.8564
0.84375 	-0.921875 	0.5 	-14.7637
0.859375 	-0.921875 	0.5 	-14.6622
0.875 	-0.921875 	0.5 	-14.5734
0.890625 	-0.921875 	0.5 	-14.4612
0.90625 	-0.921875 	0.5 	-14.3732
0.921875 	-0.921875 	0.5 	-14.2969
0.9375 	-0.921875 	0.5 	-14.2224
0.953125 	-0.921875 	0.5 	-14.1155
0.96875 	-0.921875 	0.5 	-14.0135
0.984375 	-0.921875 	0.5 	-13.9201
1 	-0.921875 	0.5 	-13.8457
1.01562 	-0.921875 	0.5 	-13.7538
1.03125 	-0.921875 	0.5 	-13.6774
1.04688 	-0.921875 	0.5 	-13.6021
1.0625 	-0.921875 	0.5 	-13.5316
1.07812 	-0.921875 	0.5 	-13.4602
1.09375 	-0.921875 	0.5 	-13.3868
1.10938 	-0.921875 	0.5 	-13.3337
1.125 	-0.921875 	0.5 	-13.2696
1.14062 	-0.921875 	0.5 	-13.199
1.15625 	-0.921875 	0.5 	-13.1361
1.17188 	-0.921875 	0.5 	-13.0793
1.1875 	-0.921875 	0.5 	-13.0224
1.20312 	-0.921875 	0.5 	-12.9765
1.21875 	-0.921875 	0.5 	-12.9387
1.23438 	-0.921875 	0.5 	-12.9014
1.25 	-0.921875 	0.5 	-12.8566
1.26562 	-0.921875 	0.5 	-12.808
1.28125 	-0.921875 	0.5 	-12.7674
1.29688 	-0.921875 	0.5 	-12.7323
1.3125 	-0.921875 	0.5 	-12.7098
1.32812 	-0.921875 	0.5 	-12.6895
1.34375 	-0.921875 	0.5 	-12.6768
1.35938 	-0.921875 	0.5 	-12.6248
1.375 	-0.921875 	0.5 	-12.6188
1.39062 	-0.921875 	0.5 	-12.5937
1.40625 	-0.921875 	0.5 	-12.5749
1.42188 	-0.921875 	0.5 	-12.5527
1.4375 	-0.921875 	0.5 	-12.5443
1.45312 	-0.921875 	0.5 	-12.5347
1.46875 	-0.921875 	0.5 	-12.5305
1.48438 	-0.921875 	0.5 	-12.5386
-0.5 	-0.90625 	0.5 	-8.18534
-0.484375 	-0.90625 	0.5 	-8.25686
-0.46875 	-0.90625 	0.5 	-8.33193
-0.453125 	-0.90625 	0.5 	-8.37505
-0.4375 	-0.90625 	0.5 	-8.47577
-0.421875 	-0.90625 	0.5 	-8.52334
-0.40625 	-0.90625 	0.5 	-8.69928
-0.390625 	-0.90625 	0.5 	-8.77627
-0.375 	-0.90625 	0.5 	-8.91125
-0.359375 	-0.90625 	0.5 	-9.00767
-0.34375 	-0.90625 	0.5 	-9.09383
-0.328125 	-0.90625 	0.5 	-9.23524
-0.3125 	-0.90625 	0.5 	-9.3601
-0.296875 	-0.90625 	0.5 	-9.46733
-0.28125 	-0.90625 	0.5 	-9.6144
-0.265625 	-0.90625 	0.5 	-9.79784
-0.25 	-0.90625 	0.5 	-9.98243
-0.234375 	-0.90625 	0.5 	-10.1547
-0.21875 	-0.90625 	0.5 	-10.3017
-0.203125 	-0.90625 	0.5 	-10.4183
-0.1875 	-0.90625 	0.5 	-10.6381
-0.171875 	-0.90625 	0.5 	-10.8477
-0.15625 	-0.90625 	0.5 	-11.077
-0.140625 	-0.90625 	0.5 	-11.3018
-0.125 	-0.90625 	0.5 	-11.4783
-0.109375 	-0.90625 	0.5 	-11.6869
-0.09375 	-0.90625 	0.5 	-11.8416
-0.078125 	-0.90625 	0.5 	-12.0859
-0.0625 	-0.90625 	0.5 	-12.3044
-0.046875 	-0.90625 	0.5 	-12.5368
-0.03125 	-0.90625 	0.5 	-12.7205
-0.015625 	-0.90625 	0.5 	-12.9242
0 	-0.90625 	0.5 	-13.1376
0.015625 	-0.90625 	0.5 	-13.3648
0.03125 	-0.90625 	0.5 	-13.5847
0.046875 	-0.90625 	0.5 	-13.8028
0.0625 	-0.90625 	0.5 	-14.0072
0.078125 	-0.90625 	0.5 	-14.1803
0.09375 	-0.90625 	0.5 	-14.3898
0.109375 	-0.90625 	0.5 	-14.5496
0.125 	-0.90625 	0.5 	-14.757
0.140625 	-0.90625 	0.5 	-14.9414
0.15625 	-0.90625 	0.5 	-15.0906
0.171875 	-0.90625 	0.5 	-15.2022
0.1875 	-0.90625 	0.5 	-15.4221
0.203125 	-0.90625 	0.5 	-15.579
0.21875 	-0.90625 	0.5 	-15.7167
0.234375 	-0.90625 	0.5 	-15.8348
0.25 	-0.90625 	0.5 	-15.9578
0.265625 	-0.90625 	0.5 	-16.0733
0.28125 	-0.90625 	0.5 	-16.1843
0.296875 	-0.90625 	0.5 	-16.2853
0.3125 	-0.90625 	0.5 	-16.3546
0.328125 	-0.90625 	0.5 	-16.4112
0.34375 	-0.90625 	0.5 	-16.4571
0.359375 	-0.90625 	0.5 	-16.5042
0.375 	-0.90625 	0.5 	-16.5658
0.390625 	-0.90625 	0.5 	-16.5826
0.40625 	-0.90625 	0.5 	-16.6128
0.421875 	-0.90625 	0.5 	-16.6326
0.4375 	-0.90625 	0.5 	-16.6409
0.453125 	-0.90625 	0.5 	-16.6394
0.46875 	-0.90625 	0.5 	-16.614
0.484375 	-0.90625 	0.5 	-16.6057
0.5 	-0.90625 	0.5 	-16.6115
0.515625 	-0.90625 	0.5 	-16.5358
0.53125 	-0.90625 	0.5 	-16.5024
0.546875 	-0.90625 	0.5 	-16.466
0.5625 	-0.90625 	0.5 	-16.4023
0.578125 	-0.90625 	0.5 	-16.3523
0.59375 	-0.90625 	0.5 	-16.28
0.609375 	-0.90625 	0.5 	-16.1889
0.625 	-0.90625 	0.5 	-16.1263
0.640625 	-0.90625 	0.5 	-16.0653
0.65625 	-0.90625 	0.5 	-15.9727
0.671875 	-0.90625 	0.5 	-15.889
0.6875 	-0.90625 	0.5 	-15.7583
0.703125 	-0.90625 	0.5 	-15.6888
0.71875 	-0.90625 	0.5 	-15.6083
0.734375 	-0.90625 	0.5 	-15.5044
0.75 	-0.90625 	0.5 	-15.4015
0.765625 	-0.90625 	0.5 	-15.2987
0.78125 	-0.90625 	0.5 	-15.1897
0.796875 	-0.90625 	0.5 	-15.0868
0.8125 	-0.90625 	0.5 	-14.9976
0.828125 	-0.90625 	0.5 	-14.8933
0.84375 	-0.90625 	0.5 	-14.8062
0.859375 	-0.90625 	0.5 	-14.6945
0.875 	-0.90625 	0.5 	-14.5972
0.890625 	-0.90625 	0.5 	-14.4912
0.90625 	-0.90625 	0.5 	-14.388
0.921875 	-0.90625 	0.5 	-14.3009
0.9375 	-0.90625 	0.5 	-14.2138
0.953125 	-0.90625 	0.5 	-14.1266
0.96875 	-0.90625 	0.5 	-14.0174
0.984375 	-0.90625 	0.5 	-13.9059
1 	-0.90625 	0.5 	-13.8251
1.01562 	-0.90625 	0.5 	-13.7301
1.03125 	-0.90625 	0.5 	-13.6477
1.04688 	-0.90625 	0.5 	-13.5737
1.0625 	-0.90625 	0.5 	-13.5022
1.07812 	-0.90625 	0.5 	-13.4287
1.09375 	-0.90625 	0.5 	-13.3471
1.10938 	-0.90625 	0.5 	-13.2793
1.125 	-0.90625 	0.5 	-13.229
1.14062 	-0.90625 	0.5 	-13.1589
1.15625 	-0.90625 	0.5 	-13.0918
1.17188 	-0.90625 	0.5 	-13.0375
1.1875 	-0.90625 	0.5 	-12.986
1.20312 	-0.90625 	0.5 	-12.935
1.21875 	-0.90625 	0.5 	-12.895
1.23438 	-0.90625 	0.5 	-12.8452
1.25 	-0.90625 	0.5 	-12.8005
1.26562 	-0.90625 	0.5 	-12.76
1.28125 	-0.90625 	0.5 	-12.7159
1.29688 	-0.90625 	0.5 	-12.6869
1.3125 	-0.90625 	0.5 	-12.6553
1.32812 	-0.90625 	0.5 	-12.6415
1.34375 	-0.90625 	0.5 	-12.6051
1.35938 	-0.90625 	0.5 	-12.57
1.375 	-0.90625 	0.5 	-12.5619
1.39062 	-0.90625 	0.5 	-12.5395
1.40625 	-0.90625 	0.5 	-12.5165
1.42188 	-0.90625 	0.5 	-12.4985
1.4375 	-0.90625 	0.5 	-12.4977
1.45312 	-0.90625 	0.5 	-12.4928
1.46875 	-0.90625 	0.5 	-12.4878
1.48438 	-0.90625 	0.5 	-12.4804
-0.5 	-0.890625 	0.5 	-8.03478
-0.484375 	-0.890625 	0.5 	-8.10652
-0.46875 	-0.890625 	0.5 	-8.17367
-0.453125 	-0.890625 	0.5 	-8.22879
-0.4375 	-0.890625 	0.5 	-8.2841
-0.421875 	-0.890625 	0.5 	-8.35057
-0.40625 	-0.890625 	0.5 	-8.57458
-0.390625 	-0.890625 	0.5 	-8.65589
-0.375 	-0.890625 	0.5 	-8.73681
-0.359375 	-0.890625 	0.5 	-8.82904
-0.34375 	-0.890625 	0.5 	-8.96721
-0.328125 	-0.890625 	0.5 	-9.08123
-0.3125 	-0.890625 	0.5 	-9.24892
-0.296875 	-0.890625 	0.5 	-9.37497
-0.28125 	-0.890625 	0.5 	-9.50195
-0.265625 	-0.890625 	0.5 	-9.69029
-0.25 	-0.890625 	0.5 	-9.8716
-0.234375 	-0.890625 	0.5 	-10.0529
-0.21875 	-0.890625 	0.5 	-10.2189
-0.203125 	-0.890625 	0.5 	-10.3529
-0.1875 	-0.890625 	0.5 	-10.4844
-0.171875 	-0.890625 	0.5 	-10.7755
-0.15625 	-0.890625 	0.5 	-10.9686
-0.140625 	-0.890625 	0.5 	-11.2203
-0.125 	-0.890625 	0.5 	-11.3992
-0.109375 	-0.890625 	0.5 	-11.5899