-0.5 	-1 	0.5 	39.2265 	0.356398 	-5.22936e-18
-0.484375 	-1 	0.5 	39.2211 	0.349679 	-2.6137e-18
-0.46875 	-1 	0.5 	39.2164 	0.343189 	9.87115e-19
-0.453125 	-1 	0.5 	39.2112 	0.3371 	-7.50286e-19
-0.4375 	-1 	0.5 	39.2078 	0.330411 	-3.90631e-19
-0.421875 	-1 	0.5 	39.2025 	0.324202 	-4.39712e-19
-0.40625 	-1 	0.5 	39.1966 	0.318141 	-6.8744e-19
-0.390625 	-1 	0.5 	39.1905 	0.311945 	-9.30232e-19
-0.375 	-1 	0.5 	39.1855 	0.303949 	-1.70334e-18
-0.359375 	-1 	0.5 	39.1809 	0.29518 	-2.00997e-18
-0.34375 	-1 	0.5 	39.1757 	0.286984 	-8.0488e-19
-0.328125 	-1 	0.5 	39.1728 	0.278699 	-1.78849e-19
-0.3125 	-1 	0.5 	39.1689 	0.272205 	1.66272e-19
-0.296875 	-1 	0.5 	39.1657 	0.263224 	4.32472e-19
-0.28125 	-1 	0.5 	39.1622 	0.256169 	7.80431e-19
-0.265625 	-1 	0.5 	39.1586 	0.248712 	9.35063e-19
-0.25 	-1 	0.5 	39.1556 	0.241793 	1.02763e-18
-0.234375 	-1 	0.5 	39.1514 	0.233321 	-6.29038e-20
-0.21875 	-1 	0.5 	39.1481 	0.224849 	-5.25138e-19
-0.203125 	-1 	0.5 	39.1441 	0.21841 	3.61418e-20
-0.1875 	-1 	0.5 	39.1414 	0.21066 	5.24627e-19
-0.171875 	-1 	0.5 	39.1392 	0.202248 	7.03683e-19
-0.15625 	-1 	0.5 	39.138 	0.193474 	4.03797e-19
-0.140625 	-1 	0.5 	39.1365 	0.185105 	-3.58204e-20
-0.125 	-1 	0.5 	39.1342 	0.176411 	-3.41947e-20
-0.109375 	-1 	0.5 	39.1318 	0.167877 	3.45585e-19
-0.09375 	-1 	0.5 	39.1297 	0.159847 	1.76795e-18
-0.078125 	-1 	0.5 	39.1288 	0.152845 	2.17523e-18
-0.0625 	-1 	0.5 	39.1291 	0.143994 	1.23789e-18
-0.046875 	-1 	0.5 	39.1293 	0.135466 	1.74632e-19
-0.03125 	-1 	0.5 	39.128 	0.127926 	2.13482e-20
-0.015625 	-1 	0.5 	39.1271 	0.120356 	-1.64469e-18
0 	-1 	0.5 	39.1253 	0.113666 	-5.14511e-18
0.015625 	-1 	0.5 	39.1242 	0.106518 	-1.97719e-18
0.03125 	-1 	0.5 	39.1251 	0.0994966 	-2.97365e-18
0.046875 	-1 	0.5 	39.1251 	0.0917632 	-1.3786e-18
0.0625 	-1 	0.5 	39.1252 	0.0840647 	2.43212e-19
0.078125 	-1 	0.5 	39.1253 	0.0765301 	5.53483e-20
0.09375 	-1 	0.5 	39.1255 	0.069052 	1.18426e-19
0.109375 	-1 	0.5 	39.126 	0.0616266 	3.43923e-20
0.125 	-1 	0.5 	39.1262 	0.0540882 	1.07334e-18
0.140625 	-1 	0.5 	39.1263 	0.0473665 	1.81684e-19
0.15625 	-1 	0.5 	39.1263 	0.040545 	1.31744e-19
0.171875 	-1 	0.5 	39.127 	0.0342661 	3.009e-18
0.1875 	-1 	0.5 	39.1276 	0.0266924 	-9.88716e-19
0.203125 	-1 	0.5 	39.1283 	0.0193067 	-7.15722e-19
0.21875 	-1 	0.5 	39.13 	0.012564 	-5.87251e-19
0.234375 	-1 	0.5 	39.1314 	0.00643881 	-1.43895e-18
0.25 	-1 	0.5 	39.1323 	0.000282445 	1.30204e-18
0.265625 	-1 	0.5 	39.1332 	-0.00659892 	-5.31233e-18
0.28125 	-1 	0.5 	39.134 	-0.0129782 	-6.36617e-18
0.296875 	-1 	0.5 	39.1349 	-0.0192055 	-3.97776e-18
0.3125 	-1 	0.5 	39.1356 	-0.0253852 	3.49726e-19
0.328125 	-1 	0.5 	39.1366 	-0.0316142 	-4.68897e-19
0.34375 	-1 	0.5 	39.137 	-0.0375376 	1.66239e-18
0.359375 	-1 	0.5 	39.1389 	-0.0442923 	9.54373e-19
0.375 	-1 	0.5 	39.1395 	-0.0504077 	2.12063e-18
0.390625 	-1 	0.5 	39.1413 	-0.0569202 	8.34514e-19
0.40625 	-1 	0.5 	39.1428 	-0.0631897 	1.15847e-18
0.421875 	-1 	0.5 	39.1434 	-0.069113 	-1.40781e-18
0.4375 	-1 	0.5 	39.1449 	-0.075088 	-3.68497e-18
0.453125 	-1 	0.5 	39.1454 	-0.0812885 	1.74913e-18
0.46875 	-1 	0.5 	39.146 	-0.0871227 	9.61332e-19
0.484375 	-1 	0.5 	39.1477 	-0.0932383 	-9.30438e-19
0.5 	-1 	0.5 	39.1499 	-0.0993677 	1.09687e-18
0.515625 	-1 	0.5 	39.1513 	-0.105303 	1.50435e-18
0.53125 	-1 	0.5 	39.1528 	-0.111653 	-1.60377e-18
0.546875 	-1 	0.5 	39.1539 	-0.117744 	-3.70986e-19
0.5625 	-1 	0.5 	39.1553 	-0.124114 	3.88156e-21
0.578125 	-1 	0.5 	39.1568 	-0.130394 	-2.75067e-20
0.59375 	-1 	0.5 	39.1586 	-0.137005 	-6.27661e-20
0.609375 	-1 	0.5 	39.1593 	-0.143478 	-4.14311e-19
0.625 	-1 	0.5 	39.1607 	-0.149221 	6.18211e-19
0.640625 	-1 	0.5 	39.1623 	-0.155569 	2.30152e-19
0.65625 	-1 	0.5 	39.1653 	-0.161782 	9.53746e-19
0.671875 	-1 	0.5 	39.1668 	-0.167843 	1.34411e-18
0.6875 	-1 	0.5 	39.1683 	-0.173493 	1.15479e-18
0.703125 	-1 	0.5 	39.1705 	-0.181084 	4.87746e-19
0.71875 	-1 	0.5 	39.1726 	-0.187595 	2.49865e-19
0.734375 	-1 	0.5 	39.1748 	-0.193935 	4.82665e-19
0.75 	-1 	0.5 	39.1771 	-0.200496 	5.01138e-19
0.765625 	-1 	0.5 	39.1794 	-0.207144 	9.42661e-20
0.78125 	-1 	0.5 	39.1818 	-0.213791 	-3.12606e-19
0.796875 	-1 	0.5 	39.1843 	-0.220457 	-7.23334e-19
0.8125 	-1 	0.5 	39.1869 	-0.227143 	-1.88519e-18
0.828125 	-1 	0.5 	39.1894 	-0.233829 	-3.04704e-18
0.84375 	-1 	0.5 	39.1926 	-0.240449 	-3.80695e-19
0.859375 	-1 	0.5 	39.1955 	-0.245997 	-1.10977e-18
0.875 	-1 	0.5 	39.1991 	-0.253315 	-9.41756e-19
0.890625 	-1 	0.5 	39.2022 	-0.259922 	-3.74256e-18
0.90625 	-1 	0.5 	39.2053 	-0.266638 	-1.67249e-18
0.921875 	-1 	0.5 	39.2085 	-0.273393 	-1.45767e-19
0.9375 	-1 	0.5 	39.2122 	-0.280388 	-1.01208e-18
0.953125 	-1 	0.5 	39.2158 	-0.286684 	-5.58478e-19
0.96875 	-1 	0.5 	39.2199 	-0.293757 	3.88415e-18
0.984375 	-1 	0.5 	39.2239 	-0.29992 	2.15606e-18
1 	-1 	0.5 	39.2282 	-0.305944 	1.70957e-19
1.01562 	-1 	0.5 	39.2332 	-0.311715 	-2.32601e-18
1.03125 	-1 	0.5 	39.238 	-0.318479 	-2.08134e-18
1.04688 	-1 	0.5 	39.2426 	-0.325505 	-5.38029e-18
1.0625 	-1 	0.5 	39.2474 	-0.331835 	-4.88881e-18
1.07812 	-1 	0.5 	39.2522 	-0.337964 	2.99304e-19
1.09375 	-1 	0.5 	39.2569 	-0.344497 	-2.93841e-18
1.10938 	-1 	0.5 	39.262 	-0.350935 	-4.48887e-18
1.125 	-1 	0.5 	39.2673 	-0.357077 	-4.0625e-18
1.14062 	-1 	0.5 	39.2731 	-0.362528 	1.03183e-18
1.15625 	-1 	0.5 	39.278 	-0.367959 	-3.78821e-19
1.17188 	-1 	0.5 	39.2843 	-0.373262 	1.19285e-19
1.1875 	-1 	0.5 	39.29 	-0.378566 	1.68434e-19
1.20312 	-1 	0.5 	39.2957 	-0.38387 	1.57233e-19
1.21875 	-1 	0.5 	39.3022 	-0.38942 	2.0202e-19
1.23438 	-1 	0.5 	39.3084 	-0.394735 	7.76349e-20
1.25 	-1 	0.5 	39.3144 	-0.398992 	-8.08184e-20
1.26562 	-1 	0.5 	39.321 	-0.403619 	-4.26085e-19
1.28125 	-1 	0.5 	39.3278 	-0.408355 	-8.26884e-19
1.29688 	-1 	0.5 	39.3343 	-0.413189 	-1.35322e-18
1.3125 	-1 	0.5 	39.3402 	-0.417587 	-1.49709e-18
1.32812 	-1 	0.5 	39.3463 	-0.421915 	-1.26942e-18
1.34375 	-1 	0.5 	39.3525 	-0.426243 	-1.04175e-18
1.35938 	-1 	0.5 	39.3597 	-0.43013 	1.27402e-18
1.375 	-1 	0.5 	39.367 	-0.433801 	2.73612e-19
1.39062 	-1 	0.5 	39.3743 	-0.43764 	3.57895e-19
1.40625 	-1 	0.5 	39.3815 	-0.441014 	-3.80867e-20
1.42188 	-1 	0.5 	39.3882 	-0.44565 	4.51083e-20
1.4375 	-1 	0.5 	39.3957 	-0.448739 	2.68356e-18
1.45312 	-1 	0.5 	39.4023 	-0.45286 	2.46435e-18
1.46875 	-1 	0.5 	39.4092 	-0.456213 	2.6804e-18
1.48438 	-1 	0.5 	39.4157 	-0.459075 	-2.45876e-19
-0.5 	-0.984375 	0.5 	39.2201 	0.362513 	-4.77236e-18
-0.484375 	-0.984375 	0.5 	39.2142 	0.355879 	-3.31451e-18
-0.46875 	-0.984375 	0.5 	39.2082 	0.349244 	-1.85665e-18
-0.453125 	-0.984375 	0.5 	39.2026 	0.342244 	-2.02821e-18
-0.4375 	-0.984375 	0.5 	39.1977 	0.335379 	-3.06265e-18
-0.421875 	-0.984375 	0.5 	39.1927 	0.328513 	-4.09708e-18
-0.40625 	-0.984375 	0.5 	39.1878 	0.321648 	-5.13152e-18
-0.390625 	-0.984375 	0.5 	39.1815 	0.31715 	-4.63024e-20
-0.375 	-0.984375 	0.5 	39.176 	0.309119 	-1.25077e-18
-0.359375 	-0.984375 	0.5 	39.1715 	0.300688 	-9.82741e-19
-0.34375 	-0.984375 	0.5 	39.167 	0.292169 	-8.39812e-19
-0.328125 	-0.984375 	0.5 	39.1631 	0.283694 	-4.80714e-19
-0.3125 	-0.984375 	0.5 	39.1595 	0.274876 	-2.05747e-19
-0.296875 	-0.984375 	0.5 	39.155 	0.267399 	1.20036e-19
-0.28125 	-0.984375 	0.5 	39.152 	0.260064 	4.83015e-19
-0.265625 	-0.984375 	0.5 	39.1487 	0.251256 	5.08995e-19
-0.25 	-0.984375 	0.5 	39.1454 	0.244063 	7.27872e-19
-0.234375 	-0.984375 	0.5 	39.1416 	0.235514 	-1.43113e-19
-0.21875 	-0.984375 	0.5 	39.1393 	0.226835 	-1.77772e-19
-0.203125 	-0.984375 	0.5 	39.1351 	0.219992 	-1.54869e-19
-0.1875 	-0.984375 	0.5 	39.1318 	0.212965 	4.75811e-19
-0.171875 	-0.984375 	0.5 	39.1295 	0.205069 	3.19984e-19
-0.15625 	-0.984375 	0.5 	39.1284 	0.196338 	2.03467e-19
-0.140625 	-0.984375 	0.5 	39.1275 	0.187258 	-1.65755e-20
-0.125 	-0.984375 	0.5 	39.1249 	0.178537 	2.09787e-19
-0.109375 	-0.984375 	0.5 	39.1225 	0.17 	5.88e-19
-0.09375 	-0.984375 	0.5 	39.1199 	0.161498 	9.13462e-19
-0.078125 	-0.984375 	0.5 	39.1194 	0.153249 	6.67825e-19
-0.0625 	-0.984375 	0.5 	39.1191 	0.145306 	2.22817e-19
-0.046875 	-0.984375 	0.5 	39.1188 	0.137017 	2.76751e-20
-0.03125 	-0.984375 	0.5 	39.1174 	0.129402 	3.98567e-20
-0.015625 	-0.984375 	0.5 	39.1153 	0.122685 	-3.90831e-19
0 	-0.984375 	0.5 	39.1151 	0.114524 	-1.40644e-18
0.015625 	-0.984375 	0.5 	39.1148 	0.106525 	-1.58467e-18
0.03125 	-0.984375 	0.5 	39.1156 	0.0989248 	1.15196e-18
0.046875 	-0.984375 	0.5 	39.1159 	0.0913253 	1.8693e-18
0.0625 	-0.984375 	0.5 	39.1156 	0.083743 	-7.54093e-19
0.078125 	-0.984375 	0.5 	39.116 	0.0760506 	-9.83877e-19
0.09375 	-0.984375 	0.5 	39.116 	0.0684607 	-4.82964e-19
0.109375 	-0.984375 	0.5 	39.1165 	0.0608257 	1.54155e-19
0.125 	-0.984375 	0.5 	39.1163 	0.0530977 	1.82576e-18
0.140625 	-0.984375 	0.5 	39.1169 	0.0464488 	1.2254e-18
0.15625 	-0.984375 	0.5 	39.1176 	0.0401079 	3.25152e-19
0.171875 	-0.984375 	0.5 	39.1188 	0.0329974 	-2.08312e-18
0.1875 	-0.984375 	0.5 	39.1199 	0.0258385 	-3.46873e-18
0.203125 	-0.984375 	0.5 	39.1198 	0.0182446 	-7.58706e-19
0.21875 	-0.984375 	0.5 	39.1216 	0.0113007 	-5.24339e-19
0.234375 	-0.984375 	0.5 	39.1228 	0.00535197 	-7.00207e-19
0.25 	-0.984375 	0.5 	39.1245 	-0.00119591 	-1.38924e-18
0.265625 	-0.984375 	0.5 	39.1254 	-0.00764767 	1.40484e-18
0.28125 	-0.984375 	0.5 	39.1262 	-0.013972 	1.16379e-18
0.296875 	-0.984375 	0.5 	39.1271 	-0.0202963 	9.2273e-19
0.3125 	-0.984375 	0.5 	39.1281 	-0.026575 	-8.02532e-19
0.328125 	-0.984375 	0.5 	39.1292 	-0.0329715 	2.13627e-20
0.34375 	-0.984375 	0.5 	39.1299 	-0.0391012 	1.41432e-18
0.359375 	-0.984375 	0.5 	39.1314 	-0.0456642 	1.35072e-18
0.375 	-0.984375 	0.5 	39.1328 	-0.0520608 	1.03012e-18
0.390625 	-0.984375 	0.5 	39.1342 	-0.0572274 	6.67771e-20
0.40625 	-0.984375 	0.5 	39.1351 	-0.0643165 	2.12056e-18
0.421875 	-0.984375 	0.5 	39.1365 	-0.0706483 	4.18807e-18
0.4375 	-0.984375 	0.5 	39.1363 	-0.0765741 	1.25251e-18
0.453125 	-0.984375 	0.5 	39.1371 	-0.082397 	-1.94542e-19
0.46875 	-0.984375 	0.5 	39.1386 	-0.087973 	-1.3323e-18
0.484375 	-0.984375 	0.5 	39.1401 	-0.0943962 	-4.45004e-19
0.5 	-0.984375 	0.5 	39.1422 	-0.0999879 	-7.57188e-19
0.515625 	-0.984375 	0.5 	39.1439 	-0.107024 	1.22796e-19
0.53125 	-0.984375 	0.5 	39.1454 	-0.113336 	-1.15353e-18
0.546875 	-0.984375 	0.5 	39.1463 	-0.11938 	-6.1527e-19
0.5625 	-0.984375 	0.5 	39.1477 	-0.125836 	-4.25644e-19
0.578125 	-0.984375 	0.5 	39.1493 	-0.132021 	-5.22294e-19
0.59375 	-0.984375 	0.5 	39.1506 	-0.138252 	-9.36919e-19
0.609375 	-0.984375 	0.5 	39.1518 	-0.144262 	1.42695e-18
0.625 	-0.984375 	0.5 	39.1529 	-0.150977 	1.8432e-19
0.640625 	-0.984375 	0.5 	39.1556 	-0.158243 	-4.83283e-18
0.65625 	-0.984375 	0.5 	39.1571 	-0.163623 	-1.39954e-18
0.671875 	-0.984375 	0.5 	39.1593 	-0.169525 	2.32292e-19
0.6875 	-0.984375 	0.5 	39.1609 	-0.175859 	-4.54722e-20
0.703125 	-0.984375 	0.5 	39.1624 	-0.183268 	6.0976e-20
0.71875 	-0.984375 	0.5 	39.1644 	-0.189395 	-6.2544e-20
0.734375 	-0.984375 	0.5 	39.1667 	-0.195816 	2.72184e-19
0.75 	-0.984375 	0.5 	39.1687 	-0.202869 	1.42647e-18
0.765625 	-0.984375 	0.5 	39.1713 	-0.209897 	8.84987e-20
0.78125 	-0.984375 	0.5 	39.1734 	-0.216277 	-3.0248e-19
0.796875 	-0.984375 	0.5 	39.1763 	-0.223185 	-4.82026e-20
0.8125 	-0.984375 	0.5 	39.1787 	-0.229511 	-1.21304e-18
0.828125 	-0.984375 	0.5 	39.1817 	-0.236618 	-4.92277e-19
0.84375 	-0.984375 	0.5 	39.1846 	-0.243555 	-1.05763e-19
0.859375 	-0.984375 	0.5 	39.1882 	-0.250008 	-3.5014e-19
0.875 	-0.984375 	0.5 	39.1916 	-0.256767 	-1.44397e-18
0.890625 	-0.984375 	0.5 	39.1945 	-0.263474 	-9.77378e-19
0.90625 	-0.984375 	0.5 	39.1972 	-0.2703 	-7.94276e-20
0.921875 	-0.984375 	0.5 	39.2006 	-0.27731 	-3.9058e-21
0.9375 	-0.984375 	0.5 	39.2042 	-0.283273 	-5.4332e-19
0.953125 	-0.984375 	0.5 	39.2079 	-0.290159 	-1.69804e-18
0.96875 	-0.984375 	0.5 	39.2118 	-0.296717 	1.67525e-18
0.984375 	-0.984375 	0.5 	39.2162 	-0.303303 	-1.9999e-18
1 	-0.984375 	0.5 	39.2208 	-0.310339 	2.8347e-18
1.01562 	-0.984375 	0.5 	39.2258 	-0.316916 	2.79279e-19
1.03125 	-0.984375 	0.5 	39.2307 	-0.323009 	-2.0596e-18
1.04688 	-0.984375 	0.5 	39.2354 	-0.329797 	-3.22595e-18
1.0625 	-0.984375 	0.5 	39.2402 	-0.336083 	-1.50843e-18
1.07812 	-0.984375 	0.5 	39.2447 	-0.34282 	7.53076e-20
1.09375 	-0.984375 	0.5 	39.2498 	-0.34913 	-7.92155e-19
1.10938 	-0.984375 	0.5 	39.255 	-0.355352 	-4.88555e-19
1.125 	-0.984375 	0.5 	39.2603 	-0.361542 	-2.07353e-19
1.14062 	-0.984375 	0.5 	39.2657 	-0.367612 	-2.32933e-21
1.15625 	-0.984375 	0.5 	39.2716 	-0.373695 	4.43183e-20
1.17188 	-0.984375 	0.5 	39.2773 	-0.378922 	1.08433e-20
1.1875 	-0.984375 	0.5 	39.2829 	-0.384057 	-1.22798e-20
1.20312 	-0.984375 	0.5 	39.2889 	-0.390071 	2.63292e-20
1.21875 	-0.984375 	0.5 	39.2957 	-0.395091 	6.28733e-20
1.23438 	-0.984375 	0.5 	39.3028 	-0.401183 	-1.84609e-19
1.25 	-0.984375 	0.5 	39.3085 	-0.40598 	-2.31476e-19
1.26562 	-0.984375 	0.5 	39.3151 	-0.410636 	-5.91189e-19
1.28125 	-0.984375 	0.5 	39.3216 	-0.415266 	-2.29376e-18
1.29688 	-0.984375 	0.5 	39.3281 	-0.419929 	-2.17344e-18
1.3125 	-0.984375 	0.5 	39.3344 	-0.424943 	-1.4528e-18
1.32812 	-0.984375 	0.5 	39.3399 	-0.429459 	-2.23504e-18
1.34375 	-0.984375 	0.5 	39.3475 	-0.433341 	3.86392e-19
1.35938 	-0.984375 	0.5 	39.3546 	-0.435896 	5.96027e-18
1.375 	-0.984375 	0.5 	39.362 	-0.44115 	-1.66291e-21
1.39062 	-0.984375 	0.5 	39.3695 	-0.444284 	-9.04489e-19
1.40625 	-0.984375 	0.5 	39.3771 	-0.448734 	-1.87249e-19
1.42188 	-0.984375 	0.5 	39.3841 	-0.452528 	2.94083e-19
1.4375 	-0.984375 	0.5 	39.3912 	-0.456003 	1.54814e-18
1.45312 	-0.984375 	0.5 	39.398 	-0.459793 	2.08501e-18
1.46875 	-0.984375 	0.5 	39.4046 	-0.463928 	1.79719e-18
1.48438 	-0.984375 	0.5 	39.4116 	-0.466983 	-7.85943e-19
-0.5 	-0.96875 	0.5 	39.215 	0.368492 	-2.37882e-19
-0.484375 	-0.96875 	0.5 	39.2067 	0.362368 	9.04191e-19
-0.46875 	-0.96875 	0.5 	39.1995 	0.355823 	5.93254e-19
-0.453125 	-0.96875 	0.5 	39.194 	0.349268 	-6.01837e-19
-0.4375 	-0.96875 	0.5 	39.1888 	0.340393 	-2.46326e-18
-0.421875 	-0.96875 	0.5 	39.1849 	0.331373 	-7.56643e-18
-0.40625 	-0.96875 	0.5 	39.1778 	0.328666 	-7.48634e-19
-0.390625 	-0.96875 	0.5 	39.1728 	0.320868 	3.38862e-18
-0.375 	-0.96875 	0.5 	39.1667 	0.313577 	-8.60912e-19
-0.359375 	-0.96875 	0.5 	39.161 	0.305102 	-1.50399e-18
-0.34375 	-0.96875 	0.5 	39.1576 	0.296708 	-4.76125e-19
-0.328125 	-0.96875 	0.5 	39.1534 	0.288654 	-9.30079e-19
-0.3125 	-0.96875 	0.5 	39.1505 	0.281408 	-1.29967e-19
-0.296875 	-0.96875 	0.5 	39.1447 	0.272992 	-4.22804e-20
-0.28125 	-0.96875 	0.5 	39.1404 	0.264134 	-3.59788e-20
-0.265625 	-0.96875 	0.5 	39.1377 	0.255247 	7.99306e-20
-0.25 	-0.96875 	0.5 	39.1349 	0.246361 	1.95536e-19
-0.234375 	-0.96875 	0.5 	39.1323 	0.237876 	1.40737e-19
-0.21875 	-0.96875 	0.5 	39.1296 	0.229459 	6.15968e-20
-0.203125 	-0.96875 	0.5 	39.1264 	0.221563 	-1.05484e-19
-0.1875 	-0.96875 	0.5 	39.1227 	0.214589 	2.92829e-19
-0.171875 	-0.96875 	0.5 	39.1203 	0.207275 	2.01054e-20
-0.15625 	-0.96875 	0.5 	39.1198 	0.197706 	1.78822e-20
-0.140625 	-0.96875 	0.5 	39.1178 	0.189128 	5.11867e-20
-0.125 	-0.96875 	0.5 	39.1138 	0.181328 	5.3071e-20
-0.109375 	-0.96875 	0.5 	39.1118 	0.172234 	4.93616e-19
-0.09375 	-0.96875 	0.5 	39.1107 	0.16361 	9.64209e-19
-0.078125 	-0.96875 	0.5 	39.111 	0.155132 	-7.08685e-19
-0.0625 	-0.96875 	0.5 	39.1094 	0.146536 	-8.93957e-20
-0.046875 	-0.96875 	0.5 	39.1082 	0.138183 	1.5889e-19
-0.03125 	-0.96875 	0.5 	39.107 	0.130626 	-4.39427e-20
-0.015625 	-0.96875 	0.5 	39.1066 	0.122537 	-4.52449e-19
0 	-0.96875 	0.5 	39.106 	0.114557 	-6.12321e-19
0.015625 	-0.96875 	0.5 	39.1063 	0.107132 	-6.87049e-19
0.03125 	-0.96875 	0.5 	39.1059 	0.0989089 	-6.01416e-19
0.046875 	-0.96875 	0.5 	39.106 	0.090988 	8.71345e-19
0.0625 	-0.96875 	0.5 	39.1062 	0.0834061 	-1.48072e-18
0.078125 	-0.96875 	0.5 	39.1065 	0.0756958 	-1.40755e-18
0.09375 	-0.96875 	0.5 	39.1069 	0.0679855 	-1.33438e-18
0.109375 	-0.96875 	0.5 	39.1072 	0.0607106 	-1.23849e-18
0.125 	-0.96875 	0.5 	39.1076 	0.0535734 	-1.2806e-18
0.140625 	-0.96875 	0.5 	39.1081 	0.0463603 	-8.94715e-19
0.15625 	-0.96875 	0.5 	39.1092 	0.0393552 	-2.76353e-20
0.171875 	-0.96875 	0.5 	39.1102 	0.0323873 	-8.55581e-19
0.1875 	-0.96875 	0.5 	39.1106 	0.0249326 	-9.94571e-19
0.203125 	-0.96875 	0.5 	39.1112 	0.0176209 	-9.9171e-19
0.21875 	-0.96875 	0.5 	39.1133 	0.0108393 	-4.45097e-19
0.234375 	-0.96875 	0.5 	39.1151 	0.00425157 	-5.70604e-19
0.25 	-0.96875 	0.5 	39.1164 	-0.00222441 	-3.2601e-18
0.265625 	-0.96875 	0.5 	39.1174 	-0.00878801 	5.91168e-19
0.28125 	-0.96875 	0.5 	39.1183 	-0.0152254 	3.37516e-18
0.296875 	-0.96875 	0.5 	39.1191 	-0.0214197 	-3.43099e-19
0.3125 	-0.96875 	0.5 	39.1206 	-0.0279262 	-1.18672e-18
0.328125 	-0.96875 	0.5 	39.121 	-0.0333 	-3.91572e-18
0.34375 	-0.96875 	0.5 	39.1223 	-0.0398402 	-2.89589e-18
0.359375 	-0.96875 	0.5 	39.1241 	-0.0470116 	1.40425e-18
0.375 	-0.96875 	0.5 	39.1251 	-0.0528977 	1.88805e-18
0.390625 	-0.96875 	0.5 	39.1261 	-0.0590388 	1.75917e-18
0.40625 	-0.96875 	0.5 	39.1272 	-0.0653644 	1.09813e-18
0.421875 	-0.96875 	0.5 	39.1283 	-0.0715603 	2.89786e-19
0.4375 	-0.96875 	0.5 	39.1288 	-0.0779096 	3.07014e-20
0.453125 	-0.96875 	0.5 	39.13 	-0.0836295 	5.00741e-19
0.46875 	-0.96875 	0.5 	39.1314 	-0.0894607 	4.86232e-19
0.484375 	-0.96875 	0.5 	39.1326 	-0.0956401 	-1.68808e-19
0.5 	-0.96875 	0.5 	39.1344 	-0.102007 	3.32403e-18
0.515625 	-0.96875 	0.5 	39.1362 	-0.108304 	4.55722e-19
0.53125 	-0.96875 	0.5 	39.1373 	-0.115356 	-1.91873e-19
0.546875 	-0.96875 	0.5 	39.1388 	-0.120781 	-1.10525e-18
0.5625 	-0.96875 	0.5 	39.1401 	-0.127155 	-4.92382e-19
0.578125 	-0.96875 	0.5 	39.1413 	-0.133316 	-1.13687e-19
0.59375 	-0.96875 	0.5 	39.1426 	-0.139442 	-2.86475e-18
0.609375 	-0.96875 	0.5 	39.1437 	-0.146201 	-2.91553e-18
0.625 	-0.96875 	0.5 	39.145 	-0.153057 	-1.6232e-18
0.640625 	-0.96875 	0.5 	39.1474 	-0.159305 	-2.27532e-18
0.65625 	-0.96875 	0.5 	39.1493 	-0.165159 	-1.01615e-18
0.671875 	-0.96875 	0.5 	39.1514 	-0.171358 	-2.56142e-19
0.6875 	-0.96875 	0.5 	39.1532 	-0.17778 	-5.36778e-19
0.703125 	-0.96875 	0.5 	39.1549 	-0.184662 	-2.95073e-20
0.71875 	-0.96875 	0.5 	39.1566 	-0.191441 	3.05648e-19
0.734375 	-0.96875 	0.5 	39.1586 	-0.198045 	1.35759e-18
0.75 	-0.96875 	0.5 	39.1606 	-0.205129 	1.44258e-18
0.765625 	-0.96875 	0.5 	39.1627 	-0.212119 	1.14274e-19
0.78125 	-0.96875 	0.5 	39.1655 	-0.21883 	2.17896e-21
0.796875 	-0.96875 	0.5 	39.1684 	-0.225748 	2.65117e-19
0.8125 	-0.96875 	0.5 	39.1708 	-0.232626 	1.65149e-19
0.828125 	-0.96875 	0.5 	39.1737 	-0.239626 	1.23811e-18
0.84375 	-0.96875 	0.5 	39.1763 	-0.246598 	1.59068e-18
0.859375 	-0.96875 	0.5 	39.1796 	-0.252958 	1.24845e-18
0.875 	-0.96875 	0.5 	39.183 	-0.260588 	-1.12154e-18
0.890625 	-0.96875 	0.5 	39.1864 	-0.26751 	-1.33472e-18
0.90625 	-0.96875 	0.5 	39.1892 	-0.273975 	1.48403e-20
0.921875 	-0.96875 	0.5 	39.1926 	-0.281092 	1.28966e-20
0.9375 	-0.96875 	0.5 	39.1963 	-0.287265 	-4.54418e-19
0.953125 	-0.96875 	0.5 	39.1999 	-0.293038 	-1.05917e-18
0.96875 	-0.96875 	0.5 	39.2042 	-0.300102 	-2.03292e-18
0.984375 	-0.96875 	0.5 	39.2088 	-0.307575 	-4.16749e-18
1 	-0.96875 	0.5 	39.2134 	-0.314575 	2.57474e-18
1.01562 	-0.96875 	0.5 	39.2184 	-0.321113 	9.12654e-19
1.03125 	-0.96875 	0.5 	39.2231 	-0.327976 	-1.87178e-18
1.04688 	-0.96875 	0.5 	39.2274 	-0.334869 	-6.23486e-19
1.0625 	-0.96875 	0.5 	39.2319 	-0.341855 	2.10299e-18
1.07812 	-0.96875 	0.5 	39.2365 	-0.348262 	-9.30332e-19
1.09375 	-0.96875 	0.5 	39.2423 	-0.354609 	-9.04709e-19
1.10938 	-0.96875 	0.5 	39.2473 	-0.360821 	-4.35255e-19
1.125 	-0.96875 	0.5 	39.2527 	-0.366891 	-2.37617e-19
1.14062 	-0.96875 	0.5 	39.2591 	-0.372568 	3.20459e-20
1.15625 	-0.96875 	0.5 	39.2645 	-0.379537 	1.74384e-19
1.17188 	-0.96875 	0.5 	39.2704 	-0.385217 	-2.46211e-20
1.1875 	-0.96875 	0.5 	39.2763 	-0.390842 	-1.02147e-19
1.20312 	-0.96875 	0.5 	39.2821 	-0.396277 	-1.04163e-19
1.21875 	-0.96875 	0.5 	39.2891 	-0.400808 	-8.12113e-20
1.23438 	-0.96875 	0.5 	39.2963 	-0.406583 	-2.94066e-19
1.25 	-0.96875 	0.5 	39.3032 	-0.413378 	-6.1832e-19
1.26562 	-0.96875 	0.5 	39.3095 	-0.417857 	-1.32884e-18
1.28125 	-0.96875 	0.5 	39.3147 	-0.421826 	-4.34636e-18
1.29688 	-0.96875 	0.5 	39.3211 	-0.426427 	-4.51031e-18
1.3125 	-0.96875 	0.5 	39.3293 	-0.432029 	-1.4437e-19
1.32812 	-0.96875 	0.5 	39.3352 	-0.436462 	-2.92766e-19
1.34375 	-0.96875 	0.5 	39.3424 	-0.43912 	5.16106e-18
1.35938 	-0.96875 	0.5 	39.3496 	-0.44293 	6.9845e-18
1.375 	-0.96875 	0.5 	39.3571 	-0.449059 	3.95803e-19
1.39062 	-0.96875 	0.5 	39.3645 	-0.451942 	-8.08492e-19
1.40625 	-0.96875 	0.5 	39.3721 	-0.456513 	-3.63225e-19
1.42188 	-0.96875 	0.5 	39.3797 	-0.460499 	-3.54876e-19
1.4375 	-0.96875 	0.5 	39.3866 	-0.464524 	2.31414e-19
1.45312 	-0.96875 	0.5 	39.3934 	-0.46838 	8.73226e-19
1.46875 	-0.96875 	0.5 	39.4006 	-0.471376 	1.38832e-18
1.48438 	-0.96875 	0.5 	39.4078 	-0.473644 	4.29198e-18
-0.5 	-0.953125 	0.5 	39.2059 	0.374998 	9.67129e-19
-0.484375 	-0.953125 	0.5 	39.1968 	0.369259 	3.43912e-18
-0.46875 	-0.953125 	0.5 	39.1916 	0.361882 	2.58414e-19
-0.453125 	-0.953125 	0.5 	39.186 	0.356572 	-7.61985e-20
-0.4375 	-0.953125 	0.5 	39.1799 	0.348027 	1.87834e-20
-0.421875 	-0.953125 	0.5 	39.1746 	0.339166 	-1.7202e-18
-0.40625 	-0.953125 	0.5 	39.1691 	0.332645 	2.82365e-18
-0.390625 	-0.953125 	0.5 	39.1642 	0.324602 	6.71559e-18
-0.375 	-0.953125 	0.5 	39.1582 	0.318052 	2.2569e-19
-0.359375 	-0.953125 	0.5 	39.1522 	0.30958 	-6.93495e-19
-0.34375 	-0.953125 	0.5 	39.1491 	0.301292 	1.24014e-19
-0.328125 	-0.953125 	0.5 	39.1446 	0.293227 	-8.00146e-19
-0.3125 	-0.953125 	0.5 	39.1416 	0.286036 	-6.76357e-19
-0.296875 	-0.953125 	0.5 	39.1356 	0.277163 	-5.17772e-19
-0.28125 	-0.953125 	0.5 	39.1307 	0.267962 	-3.29091e-19
-0.265625 	-0.953125 	0.5 	39.1275 	0.259731 	-5.29038e-19
-0.25 	-0.953125 	0.5 	39.125 	0.250668 	-5.44278e-20
-0.234375 	-0.953125 	0.5 	39.1216 	0.239861 	-3.91587e-19
-0.21875 	-0.953125 	0.5 	39.1191 	0.228049 	3.94635e-20
-0.203125 	-0.953125 	0.5 	39.1165 	0.223392 	7.79761e-20
-0.1875 	-0.953125 	0.5 	39.1136 	0.216228 	1.07185e-19
-0.171875 	-0.953125 	0.5 	39.1112 	0.208247 	3.39657e-20
-0.15625 	-0.953125 	0.5 	39.1084 	0.200431 	5.44638e-21
-0.140625 	-0.953125 	0.5 	39.1075 	0.190938 	1.36558e-19
-0.125 	-0.953125 	0.5 	39.104 	0.182813 	1.2331e-19
-0.109375 	-0.953125 	0.5 	39.1032 	0.173667 	7.41343e-19
-0.09375 	-0.953125 	0.5 	39.1014 	0.165529 	8.67946e-19
-0.078125 	-0.953125 	0.5 	39.1009 	0.156381 	-2.98311e-19
-0.0625 	-0.953125 	0.5 	39.1009 	0.14841 	-1.15688e-18
-0.046875 	-0.953125 	0.5 	39.0985 	0.139545 	9.88827e-20
-0.03125 	-0.953125 	0.5 	39.0978 	0.131038 	4.81914e-20
-0.015625 	-0.953125 	0.5 	39.0973 	0.12276 	3.60089e-20
0 	-0.953125 	0.5 	39.0967 	0.114756 	-2.41254e-20
0.015625 	-0.953125 	0.5 	39.097 	0.107293 	-2.09076e-21
0.03125 	-0.953125 	0.5 	39.0964 	0.0989306 	-2.14762e-20
0.046875 	-0.953125 	0.5 	39.0965 	0.090838 	5.07378e-20
0.0625 	-0.953125 	0.5 	39.097 	0.0828178 	-2.23847e-18
0.078125 	-0.953125 	0.5 	39.0976 	0.0751104 	-4.65532e-18
0.09375 	-0.953125 	0.5 	39.098 	0.0675792 	-8.44842e-19
0.109375 	-0.953125 	0.5 	39.0988 	0.0595975 	-9.64236e-19
0.125 	-0.953125 	0.5 	39.0988 	0.0525977 	-1.78093e-18
0.140625 	-0.953125 	0.5 	39.1001 	0.0454527 	-2.30017e-19
0.15625 	-0.953125 	0.5 	39.1009 	0.0388226 	-2.17786e-19
0.171875 	-0.953125 	0.5 	39.1017 	0.031121 	-5.23429e-19
0.1875 	-0.953125 	0.5 	39.1021 	0.0236339 	-1.00255e-19
0.203125 	-0.953125 	0.5 	39.1036 	0.0164141 	-2.31576e-19
0.21875 	-0.953125 	0.5 	39.1055 	0.0106801 	-1.26375e-18
0.234375 	-0.953125 	0.5 	39.107 	0.00315328 	-1.1049e-18
0.25 	-0.953125 	0.5 	39.1083 	-0.00331149 	-2.75363e-18
0.265625 	-0.953125 	0.5 	39.1094 	-0.00982897 	-1.96755e-18
0.28125 	-0.953125 	0.5 	39.1103 	-0.0163092 	1.0488e-18
0.296875 	-0.953125 	0.5 	39.1116 	-0.02284 	-1.04643e-18
0.3125 	-0.953125 	0.5 	39.1131 	-0.0292774 	-1.57091e-18
0.328125 	-0.953125 	0.5 	39.1142 	-0.0348923 	-1.45683e-18
0.34375 	-0.953125 	0.5 	39.1152 	-0.04122 	-1.45865e-18
0.359375 	-0.953125 	0.5 	39.1162 	-0.0476382 	4.42916e-18
0.375 	-0.953125 	0.5 	39.1175 	-0.0541009 	1.6022e-18
0.390625 	-0.953125 	0.5 	39.1185 	-0.060099 	1.75247e-18
0.40625 	-0.953125 	0.5 	39.1195 	-0.0658587 	-8.17493e-19
0.421875 	-0.953125 	0.5 	39.1209 	-0.0730804 	-3.50003e-19
0.4375 	-0.953125 	0.5 	39.1226 	-0.0795761 	-1.19191e-19
0.453125 	-0.953125 	0.5 	39.1229 	-0.0852866 	-1.93911e-20
0.46875 	-0.953125 	0.5 	39.1243 	-0.0907957 	4.11244e-19
0.484375 	-0.953125 	0.5 	39.1256 	-0.0975959 	-1.65338e-18
0.5 	-0.953125 	0.5 	39.1271 	-0.103065 	-4.6385e-19
0.515625 	-0.953125 	0.5 	39.1287 	-0.109129 	3.5807e-19
0.53125 	-0.953125 	0.5 	39.1299 	-0.115356 	-1.37289e-18
0.546875 	-0.953125 	0.5 	39.131 	-0.121906 	-7.30186e-19
0.5625 	-0.953125 	0.5 	39.1326 	-0.128231 	3.48468e-20
0.578125 	-0.953125 	0.5 	39.1338 	-0.134852 	-4.03566e-19
0.59375 	-0.953125 	0.5 	39.135 	-0.141203 	-1.57823e-18
0.609375 	-0.953125 	0.5 	39.1362 	-0.14764 	-8.57661e-19
0.625 	-0.953125 	0.5 	39.1376 	-0.154137 	-1.81265e-18
0.640625 	-0.953125 	0.5 	39.139 	-0.161259 	-2.48985e-19
0.65625 	-0.953125 	0.5 	39.1411 	-0.167538 	7.43557e-19
0.671875 	-0.953125 	0.5 	39.143 	-0.173485 	3.71088e-19
0.6875 	-0.953125 	0.5 	39.1453 	-0.179698 	-6.36485e-22
0.703125 	-0.953125 	0.5 	39.1463 	-0.186485 	-2.03749e-18
0.71875 	-0.953125 	0.5 	39.1489 	-0.193129 	5.96863e-19
0.734375 	-0.953125 	0.5 	39.1504 	-0.200178 	3.48479e-19
0.75 	-0.953125 	0.5 	39.152 	-0.20731 	2.61296e-20
0.765625 	-0.953125 	0.5 	39.1546 	-0.214324 	-2.49162e-19
0.78125 	-0.953125 	0.5 	39.1575 	-0.22124 	-3.07255e-20
0.796875 	-0.953125 	0.5 	39.1603 	-0.228278 	4.35147e-19
0.8125 	-0.953125 	0.5 	39.1629 	-0.235488 	9.03142e-19
0.828125 	-0.953125 	0.5 	39.1654 	-0.242596 	1.56333e-18
0.84375 	-0.953125 	0.5 	39.1682 	-0.24955 	1.22472e-18
0.859375 	-0.953125 	0.5 	39.1709 	-0.256515 	1.1651e-18
0.875 	-0.953125 	0.5 	39.1743 	-0.263785 	3.30824e-19
0.890625 	-0.953125 	0.5 	39.1777 	-0.270927 	-1.78982e-19
0.90625 	-0.953125 	0.5 	39.1812 	-0.27789 	-4.4744e-19
0.921875 	-0.953125 	0.5 	39.1846 	-0.284287 	-8.78622e-19
0.9375 	-0.953125 	0.5 	39.1881 	-0.29128 	-3.23769e-18
0.953125 	-0.953125 	0.5 	39.1916 	-0.297597 	-1.6933e-18
0.96875 	-0.953125 	0.5 	39.196 	-0.304948 	-3.24869e-19
0.984375 	-0.953125 	0.5 	39.2009 	-0.311983 	-8.04487e-19
1 	-0.953125 	0.5 	39.2057 	-0.318994 	-9.86872e-19
1.01562 	-0.953125 	0.5 	39.2101 	-0.326316 	-3.45955e-18
1.03125 	-0.953125 	0.5 	39.2148 	-0.332943 	-1.07984e-18
1.04688 	-0.953125 	0.5 	39.2192 	-0.339291 	-6.41573e-19
1.0625 	-0.953125 	0.5 	39.223 	-0.34676 	-6.11349e-19
1.07812 	-0.953125 	0.5 	39.2283 	-0.353475 	-6.30413e-19
1.09375 	-0.953125 	0.5 	39.2344 	-0.359964 	-7.51447e-19
1.10938 	-0.953125 	0.5 	39.2398 	-0.366161 	-4.72002e-19
1.125 	-0.953125 	0.5 	39.246 	-0.371892 	-2.19608e-19
1.14062 	-0.953125 	0.5 	39.2521 	-0.378071 	9.9528e-20
1.15625 	-0.953125 	0.5 	39.2573 	-0.385416 	3.74152e-19
1.17188 	-0.953125 	0.5 	39.2633 	-0.391061 	1.07775e-19
1.1875 	-0.953125 	0.5 	39.2692 	-0.396784 	-8.60534e-21
1.20312 	-0.953125 	0.5 	39.2752 	-0.402505 	-2.47955e-19
1.21875 	-0.953125 	0.5 	39.2825 	-0.408168 	-1.99336e-19
1.23438 	-0.953125 	0.5 	39.2898 	-0.41381 	-3.41484e-19
1.25 	-0.953125 	0.5 	39.2968 	-0.419437 	-5.68931e-19
1.26562 	-0.953125 	0.5 	39.3036 	-0.424993 	-4.0107e-19
1.28125 	-0.953125 	0.5 	39.3102 	-0.429622 	2.33005e-20
1.29688 	-0.953125 	0.5 	39.3168 	-0.434342 	1.98617e-19
1.3125 	-0.953125 	0.5 	39.3234 	-0.439061 	3.73933e-19
1.32812 	-0.953125 	0.5 	39.3304 	-0.443851 	3.9995e-19
1.34375 	-0.953125 	0.5 	39.3376 	-0.448046 	7.27484e-19
1.35938 	-0.953125 	0.5 	39.3449 	-0.452194 	1.57756e-18
1.375 	-0.953125 	0.5 	39.3522 	-0.456888 	8.5003e-19
1.39062 	-0.953125 	0.5 	39.3594 	-0.461913 	-8.98346e-19
1.40625 	-0.953125 	0.5 	39.3664 	-0.468095 	-3.48893e-18
1.42188 	-0.953125 	0.5 	39.3749 	-0.468401 	-2.79602e-19
1.4375 	-0.953125 	0.5 	39.382 	-0.473036 	1.05221e-19
1.45312 	-0.953125 	0.5 	39.3887 	-0.475777 	9.69418e-19
1.46875 	-0.953125 	0.5 	39.397 	-0.478956 	7.4076e-19
1.48438 	-0.953125 	0.5 	39.4047 	-0.481689 	2.05264e-18
-0.5 	-0.9375 	0.5 	39.1975 	0.379698 	1.47891e-18
-0.484375 	-0.9375 	0.5 	39.1898 	0.374928 	1.75839e-18
-0.46875 	-0.9375 	0.5 	39.1835 	0.368366 	5.54694e-19
-0.453125 	-0.9375 	0.5 	39.1776 	0.361338 	5.74785e-19
-0.4375 	-0.9375 	0.5 	39.1717 	0.353388 	5.26286e-19
-0.421875 	-0.9375 	0.5 	39.1656 	0.345918 	2.14894e-19
-0.40625 	-0.9375 	0.5 	39.1601 	0.336926 	1.32328e-18
-0.390625 	-0.9375 	0.5 	39.1548 	0.329439 	2.37488e-18
-0.375 	-0.9375 	0.5 	39.1495 	0.321859 	3.04143e-18
-0.359375 	-0.9375 	0.5 	39.1438 	0.314073 	3.95037e-19
-0.34375 	-0.9375 	0.5 	39.1404 	0.305936 	3.57706e-19
-0.328125 	-0.9375 	0.5 	39.1355 	0.297857 	-7.03971e-19
-0.3125 	-0.9375 	0.5 	39.1307 	0.289815 	-1.73938e-18
-0.296875 	-0.9375 	0.5 	39.1269 	0.281267 	-9.23607e-19
-0.28125 	-0.9375 	0.5 	39.1229 	0.272485 	-2.88905e-19
-0.265625 	-0.9375 	0.5 	39.1179 	0.263379 	-7.35149e-19
-0.25 	-0.9375 	0.5 	39.1148 	0.255434 	-2.04832e-19
-0.234375 	-0.9375 	0.5 	39.1112 	0.24576 	-8.07324e-19
-0.21875 	-0.9375 	0.5 	39.1083 	0.236166 	-1.10837e-18
-0.203125 	-0.9375 	0.5 	39.1047 	0.227562 	-2.06781e-19
-0.1875 	-0.9375 	0.5 	39.103 	0.218737 	6.12168e-20
-0.171875 	-0.9375 	0.5 	39.1019 	0.209681 	6.87955e-20
-0.15625 	-0.9375 	0.5 	39.0999 	0.200756 	2.13407e-19
-0.140625 	-0.9375 	0.5 	39.0974 	0.192476 	2.47855e-19
-0.125 	-0.9375 	0.5 	39.0957 	0.183535 	4.66139e-19
-0.109375 	-0.9375 	0.5 	39.0939 	0.175568 	6.40021e-19
-0.09375 	-0.9375 	0.5 	39.0921 	0.167058 	6.63463e-19
-0.078125 	-0.9375 	0.5 	39.0907 	0.157631 	1.12064e-19
-0.0625 	-0.9375 	0.5 	39.0897 	0.149226 	2.50754e-19
-0.046875 	-0.9375 	0.5 	39.0898 	0.139823 	2.08493e-18
-0.03125 	-0.9375 	0.5 	39.0882 	0.131232 	-2.23405e-19