-0.5 	-1 	0.5 	39.2478 	0.479664 	-2.722e-22
-0.484375 	-1 	0.5 	39.2393 	0.476147 	-1.08491e-20
-0.46875 	-1 	0.5 	39.2316 	0.471957 	-4.74313e-21
-0.453125 	-1 	0.5 	39.224 	0.467735 	1.54022e-21
-0.4375 	-1 	0.5 	39.2164 	0.463233 	1.1724e-20
-0.421875 	-1 	0.5 	39.2087 	0.458425 	1.39064e-20
-0.40625 	-1 	0.5 	39.2005 	0.454049 	1.59215e-20
-0.390625 	-1 	0.5 	39.1923 	0.448082 	2.91987e-20
-0.375 	-1 	0.5 	39.1851 	0.442412 	2.55478e-20
-0.359375 	-1 	0.5 	39.1782 	0.43677 	1.56603e-20
-0.34375 	-1 	0.5 	39.1709 	0.430975 	-7.42215e-22
-0.328125 	-1 	0.5 	39.1621 	0.425088 	-8.30408e-23
-0.3125 	-1 	0.5 	39.1544 	0.418875 	-9.48662e-22
-0.296875 	-1 	0.5 	39.1479 	0.412113 	-1.70458e-21
-0.28125 	-1 	0.5 	39.1396 	0.406917 	1.73786e-20
-0.265625 	-1 	0.5 	39.1334 	0.401183 	1.34434e-20
-0.25 	-1 	0.5 	39.1256 	0.394995 	2.21482e-20
-0.234375 	-1 	0.5 	39.1192 	0.388283 	6.26124e-20
-0.21875 	-1 	0.5 	39.1119 	0.381132 	3.96275e-20
-0.203125 	-1 	0.5 	39.1036 	0.376424 	-2.685e-20
-0.1875 	-1 	0.5 	39.097 	0.370543 	-4.46308e-20
-0.171875 	-1 	0.5 	39.0908 	0.362663 	-5.12633e-20
-0.15625 	-1 	0.5 	39.0839 	0.355931 	-7.47757e-20
-0.140625 	-1 	0.5 	39.0779 	0.347501 	-5.49055e-20
-0.125 	-1 	0.5 	39.0717 	0.339663 	-2.66938e-20
-0.109375 	-1 	0.5 	39.0662 	0.331467 	-5.81498e-22
-0.09375 	-1 	0.5 	39.0602 	0.323144 	-1.65562e-21
-0.078125 	-1 	0.5 	39.0538 	0.315632 	-1.16438e-21
-0.0625 	-1 	0.5 	39.0477 	0.306064 	-1.4436e-20
-0.046875 	-1 	0.5 	39.0421 	0.296253 	-2.33577e-20
-0.03125 	-1 	0.5 	39.0364 	0.28775 	-6.18029e-20
-0.015625 	-1 	0.5 	39.0298 	0.279125 	-6.3437e-20
0 	-1 	0.5 	39.0232 	0.2705 	-6.5071e-20
0.015625 	-1 	0.5 	39.0176 	0.262554 	-5.51256e-20
0.03125 	-1 	0.5 	39.014 	0.254408 	-4.95388e-21
0.046875 	-1 	0.5 	39.0101 	0.246972 	3.67583e-20
0.0625 	-1 	0.5 	39.0076 	0.236499 	4.20676e-21
0.078125 	-1 	0.5 	38.9997 	0.228833 	9.43602e-21
0.09375 	-1 	0.5 	38.994 	0.218056 	4.1938e-21
0.109375 	-1 	0.5 	38.9906 	0.209829 	-2.05548e-21
0.125 	-1 	0.5 	38.9858 	0.201607 	-3.6386e-20
0.140625 	-1 	0.5 	38.9836 	0.188109 	-5.36195e-21
0.15625 	-1 	0.5 	38.9807 	0.177101 	-1.97065e-21
0.171875 	-1 	0.5 	38.976 	0.17092 	-1.2993e-20
0.1875 	-1 	0.5 	38.9728 	0.160672 	-5.15031e-21
0.203125 	-1 	0.5 	38.9691 	0.151263 	1.57494e-21
0.21875 	-1 	0.5 	38.9659 	0.141449 	-7.67544e-21
0.234375 	-1 	0.5 	38.9629 	0.130535 	2.87582e-20
0.25 	-1 	0.5 	38.9597 	0.120074 	-1.7232e-20
0.265625 	-1 	0.5 	38.9566 	0.11037 	1.70956e-21
0.28125 	-1 	0.5 	38.9541 	0.0995655 	9.09544e-20
0.296875 	-1 	0.5 	38.9519 	0.0886326 	-2.87226e-20
0.3125 	-1 	0.5 	38.9499 	0.0781622 	-5.82982e-20
0.328125 	-1 	0.5 	38.9475 	0.0674958 	-4.07397e-21
0.34375 	-1 	0.5 	38.9452 	0.0568425 	3.48938e-20
0.359375 	-1 	0.5 	38.9434 	0.0458599 	4.20783e-20
0.375 	-1 	0.5 	38.9416 	0.0348643 	3.13339e-20
0.390625 	-1 	0.5 	38.9399 	0.0238479 	-9.97058e-21
0.40625 	-1 	0.5 	38.9386 	0.0125117 	-1.90446e-20
0.421875 	-1 	0.5 	38.9378 	0.00122435 	-7.36207e-21
0.4375 	-1 	0.5 	38.9371 	-0.01008 	3.19267e-21
0.453125 	-1 	0.5 	38.9368 	-0.0222802 	9.84035e-20
0.46875 	-1 	0.5 	38.9362 	-0.0331476 	6.19141e-20
0.484375 	-1 	0.5 	38.9356 	-0.0440102 	2.47914e-20
0.5 	-1 	0.5 	38.9351 	-0.0546732 	-5.07173e-20
0.515625 	-1 	0.5 	38.9361 	-0.0668736 	-3.48605e-20
0.53125 	-1 	0.5 	38.9373 	-0.078852 	-2.67163e-20
0.546875 	-1 	0.5 	38.9385 	-0.0908303 	-1.8572e-20
0.5625 	-1 	0.5 	38.9396 	-0.102454 	1.46581e-20
0.578125 	-1 	0.5 	38.9406 	-0.113786 	6.23722e-20
0.59375 	-1 	0.5 	38.9417 	-0.125118 	1.10086e-19
0.609375 	-1 	0.5 	38.943 	-0.135216 	3.7747e-20
0.625 	-1 	0.5 	38.9448 	-0.146876 	5.69437e-20
0.640625 	-1 	0.5 	38.9475 	-0.158186 	4.00526e-20
0.65625 	-1 	0.5 	38.9503 	-0.16898 	3.75106e-21
0.671875 	-1 	0.5 	38.953 	-0.180607 	8.14061e-22
0.6875 	-1 	0.5 	38.9554 	-0.193144 	-5.1592e-21
0.703125 	-1 	0.5 	38.958 	-0.205289 	-1.4141e-21
0.71875 	-1 	0.5 	38.9608 	-0.215914 	-2.45762e-20
0.734375 	-1 	0.5 	38.9646 	-0.228359 	3.34478e-20
0.75 	-1 	0.5 	38.9684 	-0.239664 	-2.93975e-21
0.765625 	-1 	0.5 	38.9724 	-0.251816 	5.70575e-21
0.78125 	-1 	0.5 	38.9769 	-0.261606 	-1.57828e-20
0.796875 	-1 	0.5 	38.9817 	-0.270637 	-5.70194e-20
0.8125 	-1 	0.5 	38.9867 	-0.281476 	-3.02281e-20
0.828125 	-1 	0.5 	38.9923 	-0.292749 	-2.09864e-20
0.84375 	-1 	0.5 	38.9982 	-0.302773 	-1.07878e-20
0.859375 	-1 	0.5 	39.004 	-0.312942 	5.17917e-20
0.875 	-1 	0.5 	39.0095 	-0.323883 	1.10397e-19
0.890625 	-1 	0.5 	39.0161 	-0.334071 	5.74951e-20
0.90625 	-1 	0.5 	39.0214 	-0.344524 	8.21014e-20
0.921875 	-1 	0.5 	39.0279 	-0.355156 	1.12425e-19
0.9375 	-1 	0.5 	39.0345 	-0.363585 	4.22552e-20
0.953125 	-1 	0.5 	39.0416 	-0.373024 	1.19399e-20
0.96875 	-1 	0.5 	39.0479 	-0.382939 	-7.83271e-21
0.984375 	-1 	0.5 	39.0561 	-0.392583 	-3.61351e-21
1 	-1 	0.5 	39.0627 	-0.402222 	-1.2988e-21
1.01562 	-1 	0.5 	39.0715 	-0.411014 	-2.90988e-21
1.03125 	-1 	0.5 	39.0768 	-0.418185 	-6.84562e-22
1.04688 	-1 	0.5 	39.0839 	-0.427098 	-5.60497e-21
1.0625 	-1 	0.5 	39.0913 	-0.436223 	-1.02311e-20
1.07812 	-1 	0.5 	39.1025 	-0.444101 	-2.60412e-21
1.09375 	-1 	0.5 	39.1121 	-0.453055 	6.90369e-21
1.10938 	-1 	0.5 	39.1198 	-0.460839 	8.16025e-21
1.125 	-1 	0.5 	39.1277 	-0.469708 	7.6674e-21
1.14062 	-1 	0.5 	39.1363 	-0.47624 	1.06719e-20
1.15625 	-1 	0.5 	39.1441 	-0.482843 	3.26331e-21
1.17188 	-1 	0.5 	39.1537 	-0.487554 	2.22687e-21
1.1875 	-1 	0.5 	39.1631 	-0.493189 	-2.35505e-21
1.20312 	-1 	0.5 	39.1713 	-0.502105 	-3.81263e-21
1.21875 	-1 	0.5 	39.1817 	-0.507998 	1.31917e-21
1.23438 	-1 	0.5 	39.1913 	-0.512214 	2.68933e-21
1.25 	-1 	0.5 	39.1999 	-0.518618 	3.98814e-21
1.26562 	-1 	0.5 	39.2096 	-0.523661 	5.71364e-21
1.28125 	-1 	0.5 	39.2185 	-0.528543 	-2.8848e-22
1.29688 	-1 	0.5 	39.2281 	-0.533299 	-1.09282e-20
1.3125 	-1 	0.5 	39.2376 	-0.539863 	-4.80515e-21
1.32812 	-1 	0.5 	39.2487 	-0.54444 	-5.45486e-21
1.34375 	-1 	0.5 	39.2591 	-0.549567 	-5.07065e-21
1.35938 	-1 	0.5 	39.2671 	-0.552902 	-3.07838e-21
1.375 	-1 	0.5 	39.276 	-0.557258 	1.96542e-21
1.39062 	-1 	0.5 	39.2862 	-0.560128 	5.34192e-22
1.40625 	-1 	0.5 	39.2961 	-0.56305 	-1.86012e-21
1.42188 	-1 	0.5 	39.3054 	-0.566213 	3.23211e-21
1.4375 	-1 	0.5 	39.3151 	-0.568607 	7.45798e-21
1.45312 	-1 	0.5 	39.3248 	-0.57187 	5.97525e-22
1.46875 	-1 	0.5 	39.335 	-0.574826 	-3.68511e-21
1.48438 	-1 	0.5 	39.3445 	-0.577086 	-9.1474e-21
-0.5 	-0.984375 	0.5 	39.2419 	0.48754 	-3.83692e-21
-0.484375 	-0.984375 	0.5 	39.2336 	0.483847 	-7.61408e-21
-0.46875 	-0.984375 	0.5 	39.2259 	0.479688 	-2.12663e-21
-0.453125 	-0.984375 	0.5 	39.2181 	0.475725 	1.92672e-21
-0.4375 	-0.984375 	0.5 	39.2097 	0.471116 	-9.79676e-22
-0.421875 	-0.984375 	0.5 	39.201 	0.467114 	1.06012e-20
-0.40625 	-0.984375 	0.5 	39.1925 	0.462887 	1.80749e-20
-0.390625 	-0.984375 	0.5 	39.185 	0.455846 	1.78251e-20
-0.375 	-0.984375 	0.5 	39.1774 	0.450127 	2.47767e-20
-0.359375 	-0.984375 	0.5 	39.17 	0.444699 	-1.88602e-20
-0.34375 	-0.984375 	0.5 	39.1625 	0.438541 	-1.85236e-20
-0.328125 	-0.984375 	0.5 	39.1545 	0.432378 	-3.58538e-21
-0.3125 	-0.984375 	0.5 	39.1474 	0.425985 	-5.29221e-21
-0.296875 	-0.984375 	0.5 	39.1394 	0.419358 	-1.69695e-21
-0.28125 	-0.984375 	0.5 	39.1311 	0.414069 	1.64269e-20
-0.265625 	-0.984375 	0.5 	39.1229 	0.409525 	4.22244e-20
-0.25 	-0.984375 	0.5 	39.1163 	0.403204 	6.10614e-20
-0.234375 	-0.984375 	0.5 	39.111 	0.396137 	9.52964e-20
-0.21875 	-0.984375 	0.5 	39.1044 	0.389017 	9.3725e-20
-0.203125 	-0.984375 	0.5 	39.0957 	0.381797 	2.42834e-20
-0.1875 	-0.984375 	0.5 	39.0881 	0.376385 	-2.11952e-20
-0.171875 	-0.984375 	0.5 	39.0814 	0.369315 	-4.16821e-20
-0.15625 	-0.984375 	0.5 	39.075 	0.361423 	-3.95921e-20
-0.140625 	-0.984375 	0.5 	39.068 	0.354094 	-5.36663e-20
-0.125 	-0.984375 	0.5 	39.0622 	0.34425 	-1.08006e-19
-0.109375 	-0.984375 	0.5 	39.0571 	0.336619 	-7.24671e-20
-0.09375 	-0.984375 	0.5 	39.052 	0.329279 	-2.31267e-20
-0.078125 	-0.984375 	0.5 	39.0455 	0.321034 	-6.23519e-21
-0.0625 	-0.984375 	0.5 	39.0382 	0.312153 	-1.19452e-20
-0.046875 	-0.984375 	0.5 	39.0325 	0.302733 	-3.81432e-20
-0.03125 	-0.984375 	0.5 	39.0265 	0.292947 	-4.93336e-20
-0.015625 	-0.984375 	0.5 	39.0203 	0.283243 	-7.73028e-20
0 	-0.984375 	0.5 	39.013 	0.276624 	-2.62535e-20
0.015625 	-0.984375 	0.5 	39.0074 	0.267394 	-3.25057e-20
0.03125 	-0.984375 	0.5 	39.0041 	0.257089 	2.01084e-20
0.046875 	-0.984375 	0.5 	38.9996 	0.24834 	1.54187e-20
0.0625 	-0.984375 	0.5 	38.996 	0.240249 	4.10935e-20
0.078125 	-0.984375 	0.5 	38.9906 	0.230282 	2.3463e-20
0.09375 	-0.984375 	0.5 	38.985 	0.222225 	3.36786e-20
0.109375 	-0.984375 	0.5 	38.9792 	0.213897 	2.86941e-20
0.125 	-0.984375 	0.5 	38.975 	0.205482 	-9.97726e-20
0.140625 	-0.984375 	0.5 	38.9717 	0.192922 	-2.16152e-20
0.15625 	-0.984375 	0.5 	38.9678 	0.184711 	-2.87006e-20
0.171875 	-0.984375 	0.5 	38.9657 	0.173313 	-2.56287e-21
0.1875 	-0.984375 	0.5 	38.9618 	0.164022 	-6.73939e-21
0.203125 	-0.984375 	0.5 	38.9583 	0.153721 	9.88348e-21
0.21875 	-0.984375 	0.5 	38.9546 	0.144418 	1.53748e-20
0.234375 	-0.984375 	0.5 	38.9512 	0.134048 	6.51557e-20
0.25 	-0.984375 	0.5 	38.9479 	0.123566 	2.55939e-20
0.265625 	-0.984375 	0.5 	38.9448 	0.112941 	-6.16935e-21
0.28125 	-0.984375 	0.5 	38.9425 	0.101807 	-3.94542e-20
0.296875 	-0.984375 	0.5 	38.9397 	0.0912836 	-3.16458e-20
0.3125 	-0.984375 	0.5 	38.938 	0.0801325 	-5.34333e-20
0.328125 	-0.984375 	0.5 	38.9361 	0.0693289 	-6.51545e-20
0.34375 	-0.984375 	0.5 	38.9334 	0.0585464 	6.15745e-20
0.359375 	-0.984375 	0.5 	38.9312 	0.0475996 	7.35036e-20
0.375 	-0.984375 	0.5 	38.9294 	0.03664 	1.15759e-19
0.390625 	-0.984375 	0.5 	38.9279 	0.0256369 	-8.36734e-20
0.40625 	-0.984375 	0.5 	38.9269 	0.0137511 	-3.10233e-20
0.421875 	-0.984375 	0.5 	38.9253 	0.00251591 	-1.5879e-20
0.4375 	-0.984375 	0.5 	38.9246 	-0.00826556 	-4.12853e-21
0.453125 	-0.984375 	0.5 	38.9235 	-0.0211516 	3.99966e-21
0.46875 	-0.984375 	0.5 	38.9234 	-0.0330604 	1.05577e-19
0.484375 	-0.984375 	0.5 	38.923 	-0.0432686 	-7.83728e-20
0.5 	-0.984375 	0.5 	38.9231 	-0.0542539 	-8.26284e-20
0.515625 	-0.984375 	0.5 	38.9221 	-0.0674926 	-1.26789e-20
0.53125 	-0.984375 	0.5 	38.9229 	-0.0798523 	9.01068e-21
0.546875 	-0.984375 	0.5 	38.925 	-0.0909161 	9.89261e-20
0.5625 	-0.984375 	0.5 	38.9259 	-0.103432 	-5.78314e-20
0.578125 	-0.984375 	0.5 	38.9257 	-0.114709 	-2.59018e-19
0.59375 	-0.984375 	0.5 	38.9275 	-0.125765 	-1.67193e-19
0.609375 	-0.984375 	0.5 	38.9299 	-0.13677 	4.75152e-20
0.625 	-0.984375 	0.5 	38.9319 	-0.148533 	2.1823e-20
0.640625 	-0.984375 	0.5 	38.9345 	-0.160279 	-6.35514e-20
0.65625 	-0.984375 	0.5 	38.9369 	-0.171575 	-5.25591e-20
0.671875 	-0.984375 	0.5 	38.9403 	-0.183893 	5.22423e-20
0.6875 	-0.984375 	0.5 	38.9425 	-0.196299 	-2.34643e-21
0.703125 	-0.984375 	0.5 	38.9452 	-0.208247 	1.1768e-21
0.71875 	-0.984375 	0.5 	38.9476 	-0.218579 	-6.3102e-20
0.734375 	-0.984375 	0.5 	38.9514 	-0.231373 	9.07911e-20
0.75 	-0.984375 	0.5 	38.955 	-0.243746 	1.20436e-19
0.765625 	-0.984375 	0.5 	38.9599 	-0.255459 	8.97391e-21
0.78125 	-0.984375 	0.5 	38.9647 	-0.266555 	1.08564e-20
0.796875 	-0.984375 	0.5 	38.9697 	-0.276766 	9.15842e-21
0.8125 	-0.984375 	0.5 	38.9747 	-0.286915 	1.1485e-20
0.828125 	-0.984375 	0.5 	38.9798 	-0.29777 	3.02869e-20
0.84375 	-0.984375 	0.5 	38.9854 	-0.308793 	7.95546e-20
0.859375 	-0.984375 	0.5 	38.9907 	-0.320553 	1.24964e-19
0.875 	-0.984375 	0.5 	38.9967 	-0.329904 	7.12276e-20
0.890625 	-0.984375 	0.5 	39.0025 	-0.340891 	1.61101e-19
0.90625 	-0.984375 	0.5 	39.0095 	-0.350841 	5.97713e-20
0.921875 	-0.984375 	0.5 	39.0169 	-0.36182 	3.59691e-20
0.9375 	-0.984375 	0.5 	39.0239 	-0.371208 	2.37954e-20
0.953125 	-0.984375 	0.5 	39.0309 	-0.380707 	-4.96443e-21
0.96875 	-0.984375 	0.5 	39.0372 	-0.390879 	-1.20832e-20
0.984375 	-0.984375 	0.5 	39.0458 	-0.400651 	-1.62111e-21
1 	-0.984375 	0.5 	39.0534 	-0.410053 	-7.21487e-21
1.01562 	-0.984375 	0.5 	39.0613 	-0.419158 	-7.12097e-21
1.03125 	-0.984375 	0.5 	39.0667 	-0.426867 	-6.98991e-21
1.04688 	-0.984375 	0.5 	39.0744 	-0.43607 	1.48681e-20
1.0625 	-0.984375 	0.5 	39.0825 	-0.445215 	-2.16709e-20
1.07812 	-0.984375 	0.5 	39.0935 	-0.453184 	-9.1901e-20
1.09375 	-0.984375 	0.5 	39.1018 	-0.461953 	-2.34713e-20
1.10938 	-0.984375 	0.5 	39.1102 	-0.469723 	1.37878e-20
1.125 	-0.984375 	0.5 	39.1189 	-0.477335 	7.33019e-21
1.14062 	-0.984375 	0.5 	39.1275 	-0.485263 	4.00157e-21
1.15625 	-0.984375 	0.5 	39.136 	-0.49077 	5.27273e-21
1.17188 	-0.984375 	0.5 	39.1454 	-0.496426 	9.91161e-22
1.1875 	-0.984375 	0.5 	39.1534 	-0.504206 	-5.52694e-21
1.20312 	-0.984375 	0.5 	39.1618 	-0.512766 	-6.84696e-21
1.21875 	-0.984375 	0.5 	39.1717 	-0.517618 	-4.05057e-21
1.23438 	-0.984375 	0.5 	39.183 	-0.522597 	-1.27854e-20
1.25 	-0.984375 	0.5 	39.1934 	-0.528028 	2.43809e-20
1.26562 	-0.984375 	0.5 	39.2032 	-0.532124 	-1.57169e-20
1.28125 	-0.984375 	0.5 	39.2136 	-0.536167 	-3.95195e-20
1.29688 	-0.984375 	0.5 	39.2211 	-0.543327 	-7.93529e-21
1.3125 	-0.984375 	0.5 	39.2323 	-0.551682 	-2.15739e-21
1.32812 	-0.984375 	0.5 	39.2426 	-0.553058 	-3.70744e-21
1.34375 	-0.984375 	0.5 	39.254 	-0.559019 	-4.07214e-21
1.35938 	-0.984375 	0.5 	39.2616 	-0.562021 	-1.57554e-21
1.375 	-0.984375 	0.5 	39.271 	-0.566816 	4.09329e-21
1.39062 	-0.984375 	0.5 	39.2811 	-0.569869 	3.33696e-21
1.40625 	-0.984375 	0.5 	39.2914 	-0.572685 	1.70623e-21
1.42188 	-0.984375 	0.5 	39.3017 	-0.575629 	-1.0001e-21
1.4375 	-0.984375 	0.5 	39.3119 	-0.578555 	-5.03164e-21
1.45312 	-0.984375 	0.5 	39.3222 	-0.581481 	-9.06317e-21
1.46875 	-0.984375 	0.5 	39.3319 	-0.584689 	-6.1226e-21
1.48438 	-0.984375 	0.5 	39.341 	-0.585893 	-2.48444e-20
-0.5 	-0.96875 	0.5 	39.2362 	0.495284 	4.57902e-22
-0.484375 	-0.96875 	0.5 	39.228 	0.491933 	3.16948e-23
-0.46875 	-0.96875 	0.5 	39.2199 	0.488583 	-3.94513e-22
-0.453125 	-0.96875 	0.5 	39.2117 	0.484122 	-6.6488e-22
-0.4375 	-0.96875 	0.5 	39.2034 	0.478607 	-1.20936e-20
-0.421875 	-0.96875 	0.5 	39.1948 	0.473323 	-1.45579e-20
-0.40625 	-0.96875 	0.5 	39.1859 	0.468585 	2.8116e-21
-0.390625 	-0.96875 	0.5 	39.1776 	0.463688 	9.05872e-21
-0.375 	-0.96875 	0.5 	39.1697 	0.458043 	-1.0411e-20
-0.359375 	-0.96875 	0.5 	39.1615 	0.452207 	-2.75047e-20
-0.34375 	-0.96875 	0.5 	39.1539 	0.446109 	-3.04243e-20
-0.328125 	-0.96875 	0.5 	39.1472 	0.439596 	-1.09607e-20
-0.3125 	-0.96875 	0.5 	39.1394 	0.433251 	-5.84359e-21
-0.296875 	-0.96875 	0.5 	39.1311 	0.428172 	1.44501e-20
-0.28125 	-0.96875 	0.5 	39.1226 	0.423046 	2.66826e-20
-0.265625 	-0.96875 	0.5 	39.1144 	0.417603 	3.94674e-20
-0.25 	-0.96875 	0.5 	39.1074 	0.409365 	6.95645e-20
-0.234375 	-0.96875 	0.5 	39.1014 	0.400768 	8.99239e-20
-0.21875 	-0.96875 	0.5 	39.0942 	0.394358 	6.53142e-20
-0.203125 	-0.96875 	0.5 	39.0869 	0.387949 	4.07046e-20
-0.1875 	-0.96875 	0.5 	39.0792 	0.382319 	-2.76861e-22
-0.171875 	-0.96875 	0.5 	39.072 	0.374812 	-8.80118e-21
-0.15625 	-0.96875 	0.5 	39.0651 	0.367596 	-2.695e-20
-0.140625 	-0.96875 	0.5 	39.0581 	0.360183 	-3.79758e-20
-0.125 	-0.96875 	0.5 	39.0517 	0.350887 	-5.65604e-20
-0.109375 	-0.96875 	0.5 	39.0464 	0.34348 	8.38405e-21
-0.09375 	-0.96875 	0.5 	39.0407 	0.334465 	5.88543e-20
-0.078125 	-0.96875 	0.5 	39.0362 	0.326892 	-5.09011e-21
-0.0625 	-0.96875 	0.5 	39.0277 	0.318871 	-1.95407e-21
-0.046875 	-0.96875 	0.5 	39.0225 	0.310061 	-6.83525e-20
-0.03125 	-0.96875 	0.5 	39.0167 	0.300687 	-3.31099e-20
-0.015625 	-0.96875 	0.5 	39.0105 	0.291306 	-2.96868e-20
0 	-0.96875 	0.5 	39.0034 	0.283094 	3.85456e-20
0.015625 	-0.96875 	0.5 	38.9996 	0.275086 	-5.276e-20
0.03125 	-0.96875 	0.5 	38.9935 	0.263079 	5.68947e-21
0.046875 	-0.96875 	0.5 	38.9904 	0.253188 	4.62401e-20
0.0625 	-0.96875 	0.5 	38.9856 	0.243813 	1.52114e-20
0.078125 	-0.96875 	0.5 	38.981 	0.234139 	2.94758e-20
0.09375 	-0.96875 	0.5 	38.9741 	0.225962 	4.16118e-20
0.109375 	-0.96875 	0.5 	38.9704 	0.21724 	-1.60847e-20
0.125 	-0.96875 	0.5 	38.9646 	0.208576 	-9.62331e-20
0.140625 	-0.96875 	0.5 	38.9599 	0.197789 	-3.80855e-20
0.15625 	-0.96875 	0.5 	38.9572 	0.18741 	-2.21394e-20
0.171875 	-0.96875 	0.5 	38.9546 	0.176832 	-6.37963e-21
0.1875 	-0.96875 	0.5 	38.9509 	0.167371 	-8.32846e-21
0.203125 	-0.96875 	0.5 	38.9473 	0.157205 	8.75978e-21
0.21875 	-0.96875 	0.5 	38.9436 	0.146976 	2.13212e-20
0.234375 	-0.96875 	0.5 	38.9394 	0.13644 	1.74449e-20
0.25 	-0.96875 	0.5 	38.9353 	0.125881 	4.36865e-22
0.265625 	-0.96875 	0.5 	38.9327 	0.116236 	6.69758e-22
0.28125 	-0.96875 	0.5 	38.9299 	0.104835 	-1.20367e-20
0.296875 	-0.96875 	0.5 	38.9278 	0.0935805 	-1.10734e-20
0.3125 	-0.96875 	0.5 	38.926 	0.0823025 	-1.13153e-20
0.328125 	-0.96875 	0.5 	38.9238 	0.0717931 	-2.72441e-20
0.34375 	-0.96875 	0.5 	38.9216 	0.0601943 	8.74289e-20
0.359375 	-0.96875 	0.5 	38.9194 	0.04919 	3.53066e-20
0.375 	-0.96875 	0.5 	38.9175 	0.0383013 	3.19569e-20
0.390625 	-0.96875 	0.5 	38.9158 	0.0274476 	-1.54093e-19
0.40625 	-0.96875 	0.5 	38.9148 	0.0155873 	-1.1299e-19
0.421875 	-0.96875 	0.5 	38.9139 	0.00373341 	-2.93118e-20
0.4375 	-0.96875 	0.5 	38.9121 	-0.00731643 	-1.93025e-20
0.453125 	-0.96875 	0.5 	38.9106 	-0.0197302 	-2.18641e-20
0.46875 	-0.96875 	0.5 	38.9107 	-0.0318215 	-8.58618e-20
0.484375 	-0.96875 	0.5 	38.9113 	-0.0434358 	-1.55763e-19
0.5 	-0.96875 	0.5 	38.9109 	-0.0540346 	-1.01565e-19
0.515625 	-0.96875 	0.5 	38.9096 	-0.0675905 	-1.10438e-20
0.53125 	-0.96875 	0.5 	38.9099 	-0.0808213 	-1.68486e-20
0.546875 	-0.96875 	0.5 	38.911 	-0.0921197 	5.49721e-20
0.5625 	-0.96875 	0.5 	38.913 	-0.103842 	5.19551e-20
0.578125 	-0.96875 	0.5 	38.9131 	-0.115694 	-1.34947e-19
0.59375 	-0.96875 	0.5 	38.9152 	-0.126828 	7.60286e-20
0.609375 	-0.96875 	0.5 	38.9165 	-0.138434 	1.7958e-19
0.625 	-0.96875 	0.5 	38.9186 	-0.149357 	1.33541e-20
0.640625 	-0.96875 	0.5 	38.9208 	-0.161513 	6.24776e-21
0.65625 	-0.96875 	0.5 	38.9232 	-0.173761 	-1.32365e-20
0.671875 	-0.96875 	0.5 	38.927 	-0.18668 	5.41256e-20
0.6875 	-0.96875 	0.5 	38.9299 	-0.198961 	2.90609e-20
0.703125 	-0.96875 	0.5 	38.9323 	-0.210597 	-5.99352e-21
0.71875 	-0.96875 	0.5 	38.9351 	-0.221845 	-3.08633e-20
0.734375 	-0.96875 	0.5 	38.9389 	-0.23389 	3.81685e-20
0.75 	-0.96875 	0.5 	38.9431 	-0.245992 	-4.22359e-21
0.765625 	-0.96875 	0.5 	38.9472 	-0.258567 	-6.22761e-20
0.78125 	-0.96875 	0.5 	38.9519 	-0.270576 	-3.8533e-20
0.796875 	-0.96875 	0.5 	38.9564 	-0.281677 	1.52152e-19
0.8125 	-0.96875 	0.5 	38.9617 	-0.292035 	9.12303e-20
0.828125 	-0.96875 	0.5 	38.9675 	-0.303139 	2.02688e-20
0.84375 	-0.96875 	0.5 	38.9723 	-0.315116 	9.73037e-20
0.859375 	-0.96875 	0.5 	38.9782 	-0.325339 	5.19199e-20
0.875 	-0.96875 	0.5 	38.9839 	-0.335954 	3.28599e-20
0.890625 	-0.96875 	0.5 	38.9913 	-0.346529 	-9.86439e-21
0.90625 	-0.96875 	0.5 	38.9986 	-0.357305 	-4.60721e-20
0.921875 	-0.96875 	0.5 	39.0051 	-0.368944 	-3.24674e-20
0.9375 	-0.96875 	0.5 	39.0127 	-0.37947 	-2.81672e-20
0.953125 	-0.96875 	0.5 	39.0193 	-0.388876 	-1.13689e-20
0.96875 	-0.96875 	0.5 	39.0267 	-0.398814 	-1.58188e-20
0.984375 	-0.96875 	0.5 	39.0349 	-0.408422 	-1.236e-20
1 	-0.96875 	0.5 	39.0429 	-0.417985 	-1.0814e-20
1.01562 	-0.96875 	0.5 	39.0507 	-0.427306 	-9.01075e-21
1.03125 	-0.96875 	0.5 	39.058 	-0.436187 	2.11314e-20
1.04688 	-0.96875 	0.5 	39.0655 	-0.445116 	3.96618e-20
1.0625 	-0.96875 	0.5 	39.0739 	-0.454394 	-2.81025e-20
1.07812 	-0.96875 	0.5 	39.0835 	-0.462825 	-3.03788e-20
1.09375 	-0.96875 	0.5 	39.0927 	-0.47075 	8.31021e-20
1.10938 	-0.96875 	0.5 	39.1013 	-0.478798 	1.89924e-20
1.125 	-0.96875 	0.5 	39.1097 	-0.485293 	3.5143e-20
1.14062 	-0.96875 	0.5 	39.1186 	-0.492705 	1.62814e-20
1.15625 	-0.96875 	0.5 	39.1276 	-0.499417 	5.40761e-21
1.17188 	-0.96875 	0.5 	39.1356 	-0.506832 	-1.07712e-21
1.1875 	-0.96875 	0.5 	39.144 	-0.514588 	-7.13658e-21
1.20312 	-0.96875 	0.5 	39.155 	-0.522265 	-1.05151e-20
1.21875 	-0.96875 	0.5 	39.1669 	-0.527062 	-5.01179e-20
1.23438 	-0.96875 	0.5 	39.1779 	-0.532625 	9.9374e-21
1.25 	-0.96875 	0.5 	39.1876 	-0.538326 	8.97263e-20
1.26562 	-0.96875 	0.5 	39.1954 	-0.543344 	1.89221e-20
1.28125 	-0.96875 	0.5 	39.2056 	-0.547308 	-1.67615e-20
1.29688 	-0.96875 	0.5 	39.2146 	-0.554846 	3.81056e-21
1.3125 	-0.96875 	0.5 	39.227 	-0.563502 	4.90364e-22
1.32812 	-0.96875 	0.5 	39.2372 	-0.564758 	-1.35669e-21
1.34375 	-0.96875 	0.5 	39.2479 	-0.567636 	-2.32471e-21
1.35938 	-0.96875 	0.5 	39.2565 	-0.571578 	5.52321e-22
1.375 	-0.96875 	0.5 	39.2665 	-0.575156 	1.73207e-21
1.39062 	-0.96875 	0.5 	39.2769 	-0.577947 	4.63265e-22
1.40625 	-0.96875 	0.5 	39.2879 	-0.581206 	5.49545e-22
1.42188 	-0.96875 	0.5 	39.2982 	-0.585829 	-3.66852e-22
1.4375 	-0.96875 	0.5 	39.3087 	-0.588553 	-4.12753e-21
1.45312 	-0.96875 	0.5 	39.3192 	-0.591297 	-1.2665e-20
1.46875 	-0.96875 	0.5 	39.3286 	-0.594729 	-4.15584e-21
1.48438 	-0.96875 	0.5 	39.3376 	-0.595011 	-3.46328e-20
-0.5 	-0.953125 	0.5 	39.2306 	0.502731 	6.53158e-21
-0.484375 	-0.953125 	0.5 	39.2216 	0.499139 	-2.39285e-21
-0.46875 	-0.953125 	0.5 	39.2134 	0.495923 	-2.83794e-21
-0.453125 	-0.953125 	0.5 	39.2052 	0.491853 	-3.16316e-21
-0.4375 	-0.953125 	0.5 	39.197 	0.48628 	-1.65996e-20
-0.421875 	-0.953125 	0.5 	39.1883 	0.481176 	-1.25396e-20
-0.40625 	-0.953125 	0.5 	39.1795 	0.476382 	2.79564e-21
-0.390625 	-0.953125 	0.5 	39.1704 	0.471371 	7.21674e-21
-0.375 	-0.953125 	0.5 	39.1628 	0.465826 	4.45063e-21
-0.359375 	-0.953125 	0.5 	39.1555 	0.459934 	8.6185e-22
-0.34375 	-0.953125 	0.5 	39.1479 	0.453881 	-2.94235e-21
-0.328125 	-0.953125 	0.5 	39.1394 	0.447474 	-7.22043e-21
-0.3125 	-0.953125 	0.5 	39.131 	0.441578 	-8.81526e-21
-0.296875 	-0.953125 	0.5 	39.1221 	0.436977 	-2.67169e-21
-0.28125 	-0.953125 	0.5 	39.1139 	0.43146 	1.0702e-20
-0.265625 	-0.953125 	0.5 	39.1065 	0.425383 	3.31701e-20
-0.25 	-0.953125 	0.5 	39.0984 	0.417938 	4.34393e-20
-0.234375 	-0.953125 	0.5 	39.0928 	0.407309 	9.70284e-20
-0.21875 	-0.953125 	0.5 	39.0853 	0.401382 	6.24852e-20
-0.203125 	-0.953125 	0.5 	39.0771 	0.395502 	-3.92913e-20
-0.1875 	-0.953125 	0.5 	39.0703 	0.388977 	3.93846e-21
-0.171875 	-0.953125 	0.5 	39.0633 	0.38094 	8.33356e-21
-0.15625 	-0.953125 	0.5 	39.0566 	0.372269 	5.01199e-20
-0.140625 	-0.953125 	0.5 	39.0489 	0.365122 	2.44377e-20
-0.125 	-0.953125 	0.5 	39.0414 	0.357895 	-4.25806e-22
-0.109375 	-0.953125 	0.5 	39.0357 	0.34912 	3.51918e-20
-0.09375 	-0.953125 	0.5 	39.0303 	0.340606 	6.15566e-20
-0.078125 	-0.953125 	0.5 	39.0256 	0.331946 	-1.04133e-20
-0.0625 	-0.953125 	0.5 	39.0193 	0.32434 	-4.33311e-21
-0.046875 	-0.953125 	0.5 	39.013 	0.316427 	-6.1265e-20
-0.03125 	-0.953125 	0.5 	39.0073 	0.306805 	-1.64174e-20
-0.015625 	-0.953125 	0.5 	39.0012 	0.297447 	-4.55493e-22
0 	-0.953125 	0.5 	38.9946 	0.288173 	4.34219e-20
0.015625 	-0.953125 	0.5 	38.9906 	0.280313 	-3.13707e-20
0.03125 	-0.953125 	0.5 	38.9843 	0.269771 	-1.47078e-20
0.046875 	-0.953125 	0.5 	38.9784 	0.258958 	-3.27951e-20
0.0625 	-0.953125 	0.5 	38.9731 	0.248502 	-8.20694e-20
0.078125 	-0.953125 	0.5 	38.9676 	0.24101 	7.20036e-20
0.09375 	-0.953125 	0.5 	38.9642 	0.230383 	3.53362e-20
0.109375 	-0.953125 	0.5 	38.9594 	0.220927 	-1.99421e-21
0.125 	-0.953125 	0.5 	38.9528 	0.212855 	-1.57743e-20
0.140625 	-0.953125 	0.5 	38.949 	0.203012 	-2.97957e-20
0.15625 	-0.953125 	0.5 	38.9476 	0.19246 	-4.49093e-20
0.171875 	-0.953125 	0.5 	38.9435 	0.181576 	-2.55385e-20
0.1875 	-0.953125 	0.5 	38.9397 	0.170849 	-1.31769e-20
0.203125 	-0.953125 	0.5 	38.9358 	0.159606 	-1.85599e-20
0.21875 	-0.953125 	0.5 	38.9315 	0.150376 	1.43381e-20
0.234375 	-0.953125 	0.5 	38.9279 	0.139587 	8.39096e-20
0.25 	-0.953125 	0.5 	38.924 	0.127981 	3.39408e-21
0.265625 	-0.953125 	0.5 	38.921 	0.118016 	-1.18872e-21
0.28125 	-0.953125 	0.5 	38.9179 	0.10744 	1.54033e-20
0.296875 	-0.953125 	0.5 	38.9141 	0.0967299 	-5.99219e-20
0.3125 	-0.953125 	0.5 	38.9125 	0.0854846 	-4.95533e-20
0.328125 	-0.953125 	0.5 	38.9114 	0.0740342 	-1.81575e-20
0.34375 	-0.953125 	0.5 	38.9093 	0.0623678 	-1.31233e-20
0.359375 	-0.953125 	0.5 	38.9073 	0.0511159 	-1.00759e-20
0.375 	-0.953125 	0.5 	38.9055 	0.0398976 	-2.25599e-20
0.390625 	-0.953125 	0.5 	38.9042 	0.0283707 	-5.63631e-20
0.40625 	-0.953125 	0.5 	38.903 	0.0168343 	-8.91091e-20
0.421875 	-0.953125 	0.5 	38.9019 	0.00426208 	3.36869e-20
0.4375 	-0.953125 	0.5 	38.8995 	-0.00623332 	-1.20599e-19
0.453125 	-0.953125 	0.5 	38.8979 	-0.0184564 	-7.49267e-20
0.46875 	-0.953125 	0.5 	38.8968 	-0.0313948 	-1.24051e-20
0.484375 	-0.953125 	0.5 	38.8975 	-0.043675 	-2.51434e-20
0.5 	-0.953125 	0.5 	38.8971 	-0.0556995 	1.46185e-20
0.515625 	-0.953125 	0.5 	38.8993 	-0.066037 	2.53291e-19
0.53125 	-0.953125 	0.5 	38.8974 	-0.0801118 	5.0124e-21
0.546875 	-0.953125 	0.5 	38.8994 	-0.093467 	-8.58118e-20
0.5625 	-0.953125 	0.5 	38.8997 	-0.104846 	-1.97752e-20
0.578125 	-0.953125 	0.5 	38.9007 	-0.117041 	-9.39341e-21
0.59375 	-0.953125 	0.5 	38.9021 	-0.128669 	8.22758e-20
0.609375 	-0.953125 	0.5 	38.9034 	-0.140291 	1.74422e-19
0.625 	-0.953125 	0.5 	38.9054 	-0.151632 	9.59502e-21
0.640625 	-0.953125 	0.5 	38.9076 	-0.163944 	3.73112e-21
0.65625 	-0.953125 	0.5 	38.9097 	-0.176552 	-7.17694e-22
0.671875 	-0.953125 	0.5 	38.9118 	-0.190766 	1.40569e-22
0.6875 	-0.953125 	0.5 	38.9157 	-0.202318 	2.52865e-21
0.703125 	-0.953125 	0.5 	38.9198 	-0.214131 	2.97861e-20
0.71875 	-0.953125 	0.5 	38.9234 	-0.226113 	1.53621e-19
0.734375 	-0.953125 	0.5 	38.9264 	-0.237619 	6.73507e-20
0.75 	-0.953125 	0.5 	38.9302 	-0.249516 	-1.95531e-20
0.765625 	-0.953125 	0.5 	38.9341 	-0.262253 	-5.28132e-20
0.78125 	-0.953125 	0.5 	38.9398 	-0.273213 	-1.46589e-19
0.796875 	-0.953125 	0.5 	38.9436 	-0.285857 	-6.98802e-21
0.8125 	-0.953125 	0.5 	38.9489 	-0.296591 	-2.41851e-20
0.828125 	-0.953125 	0.5 	38.9552 	-0.308758 	-2.41637e-20
0.84375 	-0.953125 	0.5 	38.9602 	-0.321635 	9.44525e-20
0.859375 	-0.953125 	0.5 	38.9664 	-0.331419 	-6.69676e-21
0.875 	-0.953125 	0.5 	38.9728 	-0.34309 	3.42356e-21
0.890625 	-0.953125 	0.5 	38.9787 	-0.354541 	-5.07429e-20
0.90625 	-0.953125 	0.5 	38.9853 	-0.364237 	-4.89369e-20
0.921875 	-0.953125 	0.5 	38.9928 	-0.375593 	-7.21817e-20
0.9375 	-0.953125 	0.5 	38.9999 	-0.385797 	-4.84078e-20
0.953125 	-0.953125 	0.5 	39.0078 	-0.396301 	-3.75462e-20
0.96875 	-0.953125 	0.5 	39.0157 	-0.407258 	-5.76263e-20
0.984375 	-0.953125 	0.5 	39.0239 	-0.417229 	-6.98642e-20
1 	-0.953125 	0.5 	39.0321 	-0.426845 	-5.91458e-20
1.01562 	-0.953125 	0.5 	39.0403 	-0.435183 	3.02661e-20
1.03125 	-0.953125 	0.5 	39.0474 	-0.444579 	-1.10998e-19
1.04688 	-0.953125 	0.5 	39.056 	-0.453951 	-9.34959e-20
1.0625 	-0.953125 	0.5 	39.0652 	-0.463415 	-4.04686e-20
1.07812 	-0.953125 	0.5 	39.0746 	-0.471676 	2.10785e-20
1.09375 	-0.953125 	0.5 	39.0839 	-0.479604 	1.10578e-19
1.10938 	-0.953125 	0.5 	39.0927 	-0.488174 	1.27393e-20
1.125 	-0.953125 	0.5 	39.1012 	-0.494875 	2.10198e-20
1.14062 	-0.953125 	0.5 	39.1104 	-0.501911 	4.65851e-21
1.15625 	-0.953125 	0.5 	39.1228 	-0.509303 	8.84603e-21
1.17188 	-0.953125 	0.5 	39.1286 	-0.515089 	3.25169e-22
1.1875 	-0.953125 	0.5 	39.1386 	-0.524657 	-2.28101e-21
1.20312 	-0.953125 	0.5 	39.149 	-0.531501 	9.39505e-22
1.21875 	-0.953125 	0.5 	39.1617 	-0.537169 	-1.7364e-20
1.23438 	-0.953125 	0.5 	39.172 	-0.54288 	6.57779e-20
1.25 	-0.953125 	0.5 	39.1807 	-0.54821 	6.38465e-20
1.26562 	-0.953125 	0.5 	39.1891 	-0.553457 	4.34236e-20
1.28125 	-0.953125 	0.5 	39.1975 	-0.55866 	1.34634e-20
1.29688 	-0.953125 	0.5 	39.2084 	-0.563989 	6.99106e-21
1.3125 	-0.953125 	0.5 	39.2197 	-0.568744 	4.44749e-21
1.32812 	-0.953125 	0.5 	39.231 	-0.573499 	1.90393e-21
1.34375 	-0.953125 	0.5 	39.2419 	-0.577104 	-4.10685e-22
1.35938 	-0.953125 	0.5 	39.2518 	-0.580444 	1.27181e-22
1.375 	-0.953125 	0.5 	39.263 	-0.583124 	4.51641e-22
1.39062 	-0.953125 	0.5 	39.2743 	-0.585799 	8.59275e-22
1.40625 	-0.953125 	0.5 	39.2842 	-0.592268 	-8.19562e-22
1.42188 	-0.953125 	0.5 	39.2947 	-0.596074 	-1.39069e-21
1.4375 	-0.953125 	0.5 	39.3051 	-0.598754 	-1.38441e-21
1.45312 	-0.953125 	0.5 	39.3156 	-0.601487 	-6.99485e-21
1.46875 	-0.953125 	0.5 	39.3253 	-0.604735 	-2.63865e-21
1.48438 	-0.953125 	0.5 	39.3343 	-0.604777 	-3.21661e-20
-0.5 	-0.9375 	0.5 	39.2237 	0.512787 	1.68752e-21
-0.484375 	-0.9375 	0.5 	39.217 	0.506428 	1.38791e-20
-0.46875 	-0.9375 	0.5 	39.2081 	0.502593 	6.02364e-21
-0.453125 	-0.9375 	0.5 	39.199 	0.499013 	-3.8619e-21
-0.4375 	-0.9375 	0.5 	39.1902 	0.494223 	1.02257e-21
-0.421875 	-0.9375 	0.5 	39.181 	0.488564 	1.71573e-20
-0.40625 	-0.9375 	0.5 	39.1719 	0.483215 	2.756e-20
-0.390625 	-0.9375 	0.5 	39.1634 	0.479331 	8.2885e-21
-0.375 	-0.9375 	0.5 	39.1552 	0.473466 	1.11052e-20
-0.359375 	-0.9375 	0.5 	39.1473 	0.468146 	1.49922e-21
-0.34375 	-0.9375 	0.5 	39.1398 	0.462122 	-2.26614e-21
-0.328125 	-0.9375 	0.5 	39.1317 	0.456364 	-4.49858e-21
-0.3125 	-0.9375 	0.5 	39.1238 	0.450595 	-6.56167e-21
-0.296875 	-0.9375 	0.5 	39.1144 	0.444115 	-8.59035e-21
-0.28125 	-0.9375 	0.5 	39.106 	0.438803 	3.16311e-21
-0.265625 	-0.9375 	0.5 	39.0985 	0.433515 	2.78764e-20
-0.25 	-0.9375 	0.5 	39.0903 	0.425758 	3.63414e-20
-0.234375 	-0.9375 	0.5 	39.0828 	0.416351 	5.27144e-20
-0.21875 	-0.9375 	0.5 	39.0751 	0.408921 	-6.10345e-20
-0.203125 	-0.9375 	0.5 	39.0679 	0.400923 	-1.38601e-19
-0.1875 	-0.9375 	0.5 	39.0615 	0.395634 	8.15378e-21
-0.171875 	-0.9375 	0.5 	39.0542 	0.38748 	2.95119e-20
-0.15625 	-0.9375 	0.5 	39.0475 	0.379465 	2.20523e-20
-0.140625 	-0.9375 	0.5 	39.0402 	0.372174 	3.66831e-21
-0.125 	-0.9375 	0.5 	39.0341 	0.364567 	-3.06172e-24
-0.109375 	-0.9375 	0.5 	39.0246 	0.359498 	5.65122e-22
-0.09375 	-0.9375 	0.5 	39.0207 	0.348165 	2.70996e-20
-0.078125 	-0.9375 	0.5 	39.0144 	0.337886 	1.70667e-20
-0.0625 	-0.9375 	0.5 	39.0099 	0.329938 	-4.00909e-21
-0.046875 	-0.9375 	0.5 	39.0039 	0.321806 	-2.30574e-21
-0.03125 	-0.9375 	0.5 	38.9977 	0.31368 	-1.5502e-22
-0.015625 	-0.9375 	0.5 	38.9912 	0.304941 	6.4468e-20
0 	-0.9375 	0.5 	38.9858 	0.293579 	4.92836e-20