-0.5 	-1 	0.5 	39.531 	0.147243 	-3.03309e-20
-0.484375 	-1 	0.5 	39.529 	0.14307 	-1.52439e-21
-0.46875 	-1 	0.5 	39.5276 	0.137348 	7.94322e-21
-0.453125 	-1 	0.5 	39.526 	0.133111 	1.2252e-20
-0.4375 	-1 	0.5 	39.5245 	0.128824 	2.19534e-20
-0.421875 	-1 	0.5 	39.5227 	0.123854 	4.12547e-21
-0.40625 	-1 	0.5 	39.5216 	0.119291 	4.88448e-22
-0.390625 	-1 	0.5 	39.5205 	0.114671 	1.07311e-20
-0.375 	-1 	0.5 	39.5195 	0.110025 	2.42368e-20
-0.359375 	-1 	0.5 	39.5187 	0.105189 	2.78114e-20
-0.34375 	-1 	0.5 	39.5179 	0.10015 	3.31439e-20
-0.328125 	-1 	0.5 	39.5172 	0.0951118 	3.84764e-20
-0.3125 	-1 	0.5 	39.5166 	0.09049 	1.11075e-20
-0.296875 	-1 	0.5 	39.5165 	0.086156 	4.25092e-20
-0.28125 	-1 	0.5 	39.5164 	0.0811922 	-4.46331e-22
-0.265625 	-1 	0.5 	39.5165 	0.0762052 	-3.00301e-20
-0.25 	-1 	0.5 	39.516 	0.0717553 	-3.31704e-21
-0.234375 	-1 	0.5 	39.5159 	0.067178 	-1.96325e-20
-0.21875 	-1 	0.5 	39.5161 	0.0623202 	-6.44017e-21
-0.203125 	-1 	0.5 	39.5165 	0.0571774 	-5.73765e-20
-0.1875 	-1 	0.5 	39.5171 	0.0528243 	-7.05493e-20
-0.171875 	-1 	0.5 	39.5177 	0.0486406 	-4.83018e-20
-0.15625 	-1 	0.5 	39.5184 	0.0447738 	-7.71062e-21
-0.140625 	-1 	0.5 	39.5192 	0.0406108 	-3.44609e-22
-0.125 	-1 	0.5 	39.52 	0.0366385 	8.08791e-22
-0.109375 	-1 	0.5 	39.5213 	0.0325145 	1.42902e-21
-0.09375 	-1 	0.5 	39.523 	0.0283261 	8.93299e-21
-0.078125 	-1 	0.5 	39.5242 	0.0244458 	1.94278e-20
-0.0625 	-1 	0.5 	39.5255 	0.0208753 	8.63043e-21
-0.046875 	-1 	0.5 	39.5267 	0.0170888 	2.24099e-20
-0.03125 	-1 	0.5 	39.5276 	0.0138223 	1.13549e-20
-0.015625 	-1 	0.5 	39.5291 	0.0104407 	-6.2531e-20
0 	-1 	0.5 	39.5306 	0.00731088 	-3.54104e-20
0.015625 	-1 	0.5 	39.5319 	0.0039672 	-7.91569e-20
0.03125 	-1 	0.5 	39.5336 	0.000695671 	-5.34204e-20
0.046875 	-1 	0.5 	39.5356 	-0.00198486 	-4.07313e-20
0.0625 	-1 	0.5 	39.5376 	-0.00502272 	-2.25582e-20
0.078125 	-1 	0.5 	39.5393 	-0.00784208 	3.90476e-21
0.09375 	-1 	0.5 	39.5405 	-0.0100696 	-1.52587e-20
0.109375 	-1 	0.5 	39.5416 	-0.0130975 	2.98239e-20
0.125 	-1 	0.5 	39.5425 	-0.0159546 	6.18835e-20
0.140625 	-1 	0.5 	39.5445 	-0.0179299 	-3.32034e-20
0.15625 	-1 	0.5 	39.5456 	-0.0204033 	-7.9669e-20
0.171875 	-1 	0.5 	39.5474 	-0.0222648 	9.94526e-20
0.1875 	-1 	0.5 	39.5489 	-0.0242704 	1.28889e-19
0.203125 	-1 	0.5 	39.55 	-0.0267007 	1.29218e-20
0.21875 	-1 	0.5 	39.5512 	-0.0286666 	1.24948e-20
0.234375 	-1 	0.5 	39.5525 	-0.0302401 	3.84984e-20
0.25 	-1 	0.5 	39.5536 	-0.0325754 	2.14741e-21
0.265625 	-1 	0.5 	39.5547 	-0.0343676 	3.54424e-22
0.28125 	-1 	0.5 	39.5558 	-0.0361055 	4.78921e-23
0.296875 	-1 	0.5 	39.5569 	-0.0379233 	4.68877e-21
0.3125 	-1 	0.5 	39.5579 	-0.0397002 	6.84947e-21
0.328125 	-1 	0.5 	39.5586 	-0.0413416 	-3.95978e-21
0.34375 	-1 	0.5 	39.5594 	-0.0431056 	-5.74399e-21
0.359375 	-1 	0.5 	39.56 	-0.0448577 	-9.13987e-21
0.375 	-1 	0.5 	39.5606 	-0.0465456 	-2.19595e-20
0.390625 	-1 	0.5 	39.5614 	-0.0482722 	1.40869e-20
0.40625 	-1 	0.5 	39.5619 	-0.0499807 	3.99872e-22
0.421875 	-1 	0.5 	39.5628 	-0.0518861 	3.07578e-21
0.4375 	-1 	0.5 	39.5631 	-0.0536699 	-2.13918e-20
0.453125 	-1 	0.5 	39.5635 	-0.0554984 	8.1618e-20
0.46875 	-1 	0.5 	39.5638 	-0.0571888 	-2.87118e-20
0.484375 	-1 	0.5 	39.5644 	-0.0592961 	3.0936e-21
0.5 	-1 	0.5 	39.5647 	-0.0610873 	-3.06832e-21
0.515625 	-1 	0.5 	39.5648 	-0.0631412 	-1.03679e-21
0.53125 	-1 	0.5 	39.5652 	-0.065298 	7.32043e-22
0.546875 	-1 	0.5 	39.5656 	-0.0671847 	-7.02803e-22
0.5625 	-1 	0.5 	39.5656 	-0.0692987 	1.48762e-20
0.578125 	-1 	0.5 	39.5656 	-0.0716232 	4.23201e-20
0.59375 	-1 	0.5 	39.5658 	-0.0735317 	1.44337e-21
0.609375 	-1 	0.5 	39.5659 	-0.0756444 	-5.40099e-21
0.625 	-1 	0.5 	39.5661 	-0.0781277 	-2.7502e-20
0.640625 	-1 	0.5 	39.5663 	-0.0806323 	-1.85777e-20
0.65625 	-1 	0.5 	39.5666 	-0.0831194 	-5.67991e-21
0.671875 	-1 	0.5 	39.5668 	-0.0855211 	-1.48755e-20
0.6875 	-1 	0.5 	39.5671 	-0.0879907 	-9.35722e-21
0.703125 	-1 	0.5 	39.5672 	-0.0909351 	-4.36291e-20
0.71875 	-1 	0.5 	39.5677 	-0.0935321 	2.73375e-20
0.734375 	-1 	0.5 	39.568 	-0.096236 	-1.33742e-20
0.75 	-1 	0.5 	39.5682 	-0.098753 	1.07371e-19
0.765625 	-1 	0.5 	39.5686 	-0.1018 	4.41913e-20
0.78125 	-1 	0.5 	39.569 	-0.104959 	1.62484e-20
0.796875 	-1 	0.5 	39.5693 	-0.107882 	-1.05473e-20
0.8125 	-1 	0.5 	39.5698 	-0.111345 	-8.44322e-20
0.828125 	-1 	0.5 	39.5706 	-0.114321 	2.16611e-21
0.84375 	-1 	0.5 	39.5711 	-0.117346 	9.90329e-21
0.859375 	-1 	0.5 	39.5721 	-0.120696 	-4.90365e-21
0.875 	-1 	0.5 	39.5724 	-0.124005 	-1.18655e-21
0.890625 	-1 	0.5 	39.5732 	-0.127068 	-8.29534e-21
0.90625 	-1 	0.5 	39.5737 	-0.130036 	-4.371e-22
0.921875 	-1 	0.5 	39.5751 	-0.13288 	-4.2793e-21
0.9375 	-1 	0.5 	39.5757 	-0.136915 	6.42668e-21
0.953125 	-1 	0.5 	39.5773 	-0.140439 	5.51917e-20
0.96875 	-1 	0.5 	39.5785 	-0.143423 	-2.09514e-20
0.984375 	-1 	0.5 	39.5797 	-0.146815 	-3.24864e-20
1 	-1 	0.5 	39.5813 	-0.150781 	-5.89743e-20
1.01562 	-1 	0.5 	39.5826 	-0.15447 	9.44699e-20
1.03125 	-1 	0.5 	39.5845 	-0.157911 	6.12336e-20
1.04688 	-1 	0.5 	39.5858 	-0.161777 	-7.09273e-20
1.0625 	-1 	0.5 	39.5874 	-0.165259 	-5.34915e-20
1.07812 	-1 	0.5 	39.5894 	-0.168441 	1.04325e-21
1.09375 	-1 	0.5 	39.5908 	-0.171864 	1.25712e-20
1.10938 	-1 	0.5 	39.5929 	-0.175421 	-5.91166e-21
1.125 	-1 	0.5 	39.595 	-0.178754 	-9.52647e-21
1.14062 	-1 	0.5 	39.5971 	-0.182086 	-1.31413e-20
1.15625 	-1 	0.5 	39.5995 	-0.185053 	3.28167e-21
1.17188 	-1 	0.5 	39.6019 	-0.188431 	2.60874e-20
1.1875 	-1 	0.5 	39.6044 	-0.192264 	9.72404e-20
1.20312 	-1 	0.5 	39.6073 	-0.195591 	1.35439e-20
1.21875 	-1 	0.5 	39.6096 	-0.198514 	-6.64999e-20
1.23438 	-1 	0.5 	39.6121 	-0.202582 	-1.88812e-20
1.25 	-1 	0.5 	39.6141 	-0.206118 	-8.31118e-21
1.26562 	-1 	0.5 	39.6169 	-0.208388 	-7.41832e-21
1.28125 	-1 	0.5 	39.6194 	-0.211153 	-1.58492e-20
1.29688 	-1 	0.5 	39.6227 	-0.214526 	-1.11163e-20
1.3125 	-1 	0.5 	39.6265 	-0.217688 	-4.62554e-20
1.32812 	-1 	0.5 	39.6301 	-0.220729 	-6.54234e-20
1.34375 	-1 	0.5 	39.6319 	-0.222988 	1.83654e-20
1.35938 	-1 	0.5 	39.6356 	-0.225631 	4.75108e-20
1.375 	-1 	0.5 	39.6395 	-0.228419 	1.17984e-20
1.39062 	-1 	0.5 	39.6428 	-0.23098 	1.81667e-20
1.40625 	-1 	0.5 	39.646 	-0.233138 	6.13823e-20
1.42188 	-1 	0.5 	39.6495 	-0.236025 	4.1257e-20
1.4375 	-1 	0.5 	39.6529 	-0.238594 	8.78235e-21
1.45312 	-1 	0.5 	39.6563 	-0.240641 	-1.45366e-19
1.46875 	-1 	0.5 	39.6598 	-0.242736 	-1.28063e-19
1.48438 	-1 	0.5 	39.6634 	-0.244819 	2.0165e-20
-0.5 	-0.984375 	0.5 	39.5253 	0.149346 	-6.99367e-21
-0.484375 	-0.984375 	0.5 	39.5232 	0.145652 	8.5658e-22
-0.46875 	-0.984375 	0.5 	39.5216 	0.139999 	6.91132e-21
-0.453125 	-0.984375 	0.5 	39.5201 	0.134785 	1.31825e-20
-0.4375 	-0.984375 	0.5 	39.5187 	0.130063 	1.59761e-20
-0.421875 	-0.984375 	0.5 	39.5171 	0.125219 	8.57079e-21
-0.40625 	-0.984375 	0.5 	39.5157 	0.120489 	-1.38979e-21
-0.390625 	-0.984375 	0.5 	39.5147 	0.115843 	1.21158e-20
-0.375 	-0.984375 	0.5 	39.5133 	0.110846 	1.43961e-20
-0.359375 	-0.984375 	0.5 	39.512 	0.105774 	4.55457e-20
-0.34375 	-0.984375 	0.5 	39.5108 	0.100741 	7.16576e-20
-0.328125 	-0.984375 	0.5 	39.5104 	0.0958911 	5.6712e-20
-0.3125 	-0.984375 	0.5 	39.5107 	0.0911672 	1.34322e-20
-0.296875 	-0.984375 	0.5 	39.5106 	0.0859407 	7.02091e-21
-0.28125 	-0.984375 	0.5 	39.5105 	0.0810578 	-1.02463e-20
-0.265625 	-0.984375 	0.5 	39.5107 	0.0760656 	-4.08443e-20
-0.25 	-0.984375 	0.5 	39.5101 	0.0715266 	-2.44009e-21
-0.234375 	-0.984375 	0.5 	39.5102 	0.066775 	-8.1793e-21
-0.21875 	-0.984375 	0.5 	39.5102 	0.062664 	3.08724e-20
-0.203125 	-0.984375 	0.5 	39.5103 	0.0567779 	-5.79091e-21
-0.1875 	-0.984375 	0.5 	39.511 	0.0522602 	-4.59253e-20
-0.171875 	-0.984375 	0.5 	39.5117 	0.0483336 	3.06931e-20
-0.15625 	-0.984375 	0.5 	39.5133 	0.0437739 	8.85097e-21
-0.140625 	-0.984375 	0.5 	39.5139 	0.0401877 	-2.38614e-20
-0.125 	-0.984375 	0.5 	39.5149 	0.0356287 	-6.16841e-21
-0.109375 	-0.984375 	0.5 	39.5164 	0.0317801 	6.69886e-21
-0.09375 	-0.984375 	0.5 	39.5182 	0.0276813 	2.01301e-20
-0.078125 	-0.984375 	0.5 	39.5193 	0.0231264 	1.83875e-20
-0.0625 	-0.984375 	0.5 	39.5205 	0.0194918 	1.71232e-20
-0.046875 	-0.984375 	0.5 	39.5219 	0.0159516 	1.80704e-21
-0.03125 	-0.984375 	0.5 	39.5232 	0.0122631 	4.35801e-20
-0.015625 	-0.984375 	0.5 	39.5247 	0.00885298 	-5.77202e-20
0 	-0.984375 	0.5 	39.5258 	0.00543427 	-1.33378e-19
0.015625 	-0.984375 	0.5 	39.5277 	0.00239994 	-4.55426e-20
0.03125 	-0.984375 	0.5 	39.5296 	-0.000646601 	-2.90066e-20
0.046875 	-0.984375 	0.5 	39.5313 	-0.00411577 	-3.15694e-20
0.0625 	-0.984375 	0.5 	39.5332 	-0.00673666 	-1.38569e-20
0.078125 	-0.984375 	0.5 	39.5353 	-0.00943589 	2.5116e-20
0.09375 	-0.984375 	0.5 	39.5369 	-0.0118628 	3.57488e-20
0.109375 	-0.984375 	0.5 	39.5384 	-0.0143388 	2.35006e-20
0.125 	-0.984375 	0.5 	39.5398 	-0.0169128 	1.99561e-20
0.140625 	-0.984375 	0.5 	39.5409 	-0.0195738 	2.50318e-20
0.15625 	-0.984375 	0.5 	39.5426 	-0.0216195 	5.02181e-20
0.171875 	-0.984375 	0.5 	39.544 	-0.0237376 	4.46826e-20
0.1875 	-0.984375 	0.5 	39.5454 	-0.0258951 	2.69245e-20
0.203125 	-0.984375 	0.5 	39.5469 	-0.0280438 	1.93017e-20
0.21875 	-0.984375 	0.5 	39.5482 	-0.029927 	2.0708e-20
0.234375 	-0.984375 	0.5 	39.5494 	-0.0317929 	1.39021e-20
0.25 	-0.984375 	0.5 	39.5506 	-0.033596 	1.18806e-20
0.265625 	-0.984375 	0.5 	39.5518 	-0.0353535 	1.04471e-21
0.28125 	-0.984375 	0.5 	39.553 	-0.0374464 	1.61364e-21
0.296875 	-0.984375 	0.5 	39.5542 	-0.0388235 	9.73539e-21
0.3125 	-0.984375 	0.5 	39.5552 	-0.0405967 	1.10408e-20
0.328125 	-0.984375 	0.5 	39.5559 	-0.0423158 	5.95661e-21
0.34375 	-0.984375 	0.5 	39.5568 	-0.0439656 	2.33222e-20
0.359375 	-0.984375 	0.5 	39.5577 	-0.0455386 	-2.91419e-21
0.375 	-0.984375 	0.5 	39.5583 	-0.0472034 	-2.78889e-20
0.390625 	-0.984375 	0.5 	39.5591 	-0.0487981 	3.399e-20
0.40625 	-0.984375 	0.5 	39.5596 	-0.0503863 	3.95703e-20
0.421875 	-0.984375 	0.5 	39.56 	-0.0523282 	-1.20296e-20
0.4375 	-0.984375 	0.5 	39.5603 	-0.0540673 	-6.11639e-21
0.453125 	-0.984375 	0.5 	39.5606 	-0.0558083 	-6.25905e-22
0.46875 	-0.984375 	0.5 	39.5614 	-0.0577353 	-5.09631e-21
0.484375 	-0.984375 	0.5 	39.5621 	-0.0596623 	-9.56672e-21
0.5 	-0.984375 	0.5 	39.5621 	-0.0614521 	-3.37541e-21
0.515625 	-0.984375 	0.5 	39.5622 	-0.063465 	-2.21012e-21
0.53125 	-0.984375 	0.5 	39.5623 	-0.0653659 	-2.85875e-21
0.546875 	-0.984375 	0.5 	39.5627 	-0.0672371 	1.15145e-20
0.5625 	-0.984375 	0.5 	39.5626 	-0.0694479 	1.39724e-20
0.578125 	-0.984375 	0.5 	39.5626 	-0.0716626 	1.24005e-20
0.59375 	-0.984375 	0.5 	39.5628 	-0.0736457 	3.70292e-20
0.609375 	-0.984375 	0.5 	39.5628 	-0.0759186 	3.02225e-21
0.625 	-0.984375 	0.5 	39.5629 	-0.0784238 	-6.15673e-20
0.640625 	-0.984375 	0.5 	39.5631 	-0.0808471 	2.2014e-21
0.65625 	-0.984375 	0.5 	39.5632 	-0.0832534 	2.55688e-21
0.671875 	-0.984375 	0.5 	39.5635 	-0.0856572 	-1.88976e-20
0.6875 	-0.984375 	0.5 	39.5638 	-0.0880918 	-2.13414e-20
0.703125 	-0.984375 	0.5 	39.5639 	-0.0910631 	-6.72644e-20
0.71875 	-0.984375 	0.5 	39.5643 	-0.0936806 	-3.335e-21
0.734375 	-0.984375 	0.5 	39.5645 	-0.0965449 	2.16923e-21
0.75 	-0.984375 	0.5 	39.5647 	-0.0992599 	1.21494e-20
0.765625 	-0.984375 	0.5 	39.5649 	-0.102171 	2.61991e-20
0.78125 	-0.984375 	0.5 	39.5652 	-0.105238 	1.36993e-20
0.796875 	-0.984375 	0.5 	39.5656 	-0.108405 	-1.13658e-20
0.8125 	-0.984375 	0.5 	39.5659 	-0.111998 	-1.56521e-19
0.828125 	-0.984375 	0.5 	39.5668 	-0.114992 	-6.57982e-20
0.84375 	-0.984375 	0.5 	39.5674 	-0.118021 	3.79388e-21
0.859375 	-0.984375 	0.5 	39.5682 	-0.121235 	-3.2713e-20
0.875 	-0.984375 	0.5 	39.5687 	-0.124431 	-3.36857e-20
0.890625 	-0.984375 	0.5 	39.5692 	-0.127627 	-3.46585e-20
0.90625 	-0.984375 	0.5 	39.5697 	-0.130952 	-3.60052e-21
0.921875 	-0.984375 	0.5 	39.5708 	-0.134414 	-5.57757e-22
0.9375 	-0.984375 	0.5 	39.5718 	-0.137876 	2.48501e-21
0.953125 	-0.984375 	0.5 	39.573 	-0.141486 	-2.24479e-20
0.96875 	-0.984375 	0.5 	39.5743 	-0.145073 	-6.99071e-20
0.984375 	-0.984375 	0.5 	39.5755 	-0.148227 	-3.76552e-20
1 	-0.984375 	0.5 	39.5773 	-0.152606 	-1.38313e-19
1.01562 	-0.984375 	0.5 	39.5787 	-0.156186 	-6.33324e-20
1.03125 	-0.984375 	0.5 	39.58 	-0.15981 	5.80394e-20
1.04688 	-0.984375 	0.5 	39.5813 	-0.163628 	-6.06918e-20
1.0625 	-0.984375 	0.5 	39.5833 	-0.166851 	-1.17089e-20
1.07812 	-0.984375 	0.5 	39.5849 	-0.170326 	3.17673e-21
1.09375 	-0.984375 	0.5 	39.5866 	-0.173653 	2.19103e-20
1.10938 	-0.984375 	0.5 	39.5884 	-0.177393 	1.95647e-20
1.125 	-0.984375 	0.5 	39.5906 	-0.180631 	1.81319e-20
1.14062 	-0.984375 	0.5 	39.5929 	-0.183897 	1.39769e-20
1.15625 	-0.984375 	0.5 	39.5954 	-0.187231 	3.01351e-21
1.17188 	-0.984375 	0.5 	39.5979 	-0.190712 	-2.52397e-20
1.1875 	-0.984375 	0.5 	39.6007 	-0.194259 	-2.65762e-20
1.20312 	-0.984375 	0.5 	39.6035 	-0.197807 	-2.79128e-20
1.21875 	-0.984375 	0.5 	39.6061 	-0.201387 	-3.33475e-20
1.23438 	-0.984375 	0.5 	39.6084 	-0.204399 	-4.64095e-20
1.25 	-0.984375 	0.5 	39.6106 	-0.207483 	-6.08223e-20
1.26562 	-0.984375 	0.5 	39.6129 	-0.210665 	-5.46611e-20
1.28125 	-0.984375 	0.5 	39.6159 	-0.214523 	3.81199e-20
1.29688 	-0.984375 	0.5 	39.6193 	-0.217977 	4.91402e-20
1.3125 	-0.984375 	0.5 	39.6229 	-0.22086 	-2.14693e-20
1.32812 	-0.984375 	0.5 	39.6264 	-0.223887 	-3.87773e-20
1.34375 	-0.984375 	0.5 	39.6287 	-0.226234 	3.74267e-20
1.35938 	-0.984375 	0.5 	39.6324 	-0.228862 	7.3353e-20
1.375 	-0.984375 	0.5 	39.6363 	-0.231642 	4.13011e-20
1.39062 	-0.984375 	0.5 	39.64 	-0.234332 	1.93911e-20
1.40625 	-0.984375 	0.5 	39.6431 	-0.237004 	7.06326e-20
1.42188 	-0.984375 	0.5 	39.6462 	-0.239663 	1.39203e-19
1.4375 	-0.984375 	0.5 	39.6501 	-0.242191 	2.60713e-20
1.45312 	-0.984375 	0.5 	39.6535 	-0.244262 	-2.22149e-19
1.46875 	-0.984375 	0.5 	39.6571 	-0.24641 	-6.06555e-21
1.48438 	-0.984375 	0.5 	39.6609 	-0.248338 	1.13446e-19
-0.5 	-0.96875 	0.5 	39.5195 	0.151923 	-4.61737e-21
-0.484375 	-0.96875 	0.5 	39.5177 	0.146665 	7.57899e-21
-0.46875 	-0.96875 	0.5 	39.5155 	0.142111 	4.32789e-20
-0.453125 	-0.96875 	0.5 	39.5139 	0.136536 	-1.69293e-20
-0.4375 	-0.96875 	0.5 	39.5122 	0.131488 	-3.24497e-20
-0.421875 	-0.96875 	0.5 	39.511 	0.12647 	-1.17834e-20
-0.40625 	-0.96875 	0.5 	39.5097 	0.121551 	-3.53007e-21
-0.390625 	-0.96875 	0.5 	39.5083 	0.116551 	-1.36061e-21
-0.375 	-0.96875 	0.5 	39.5071 	0.111549 	4.02086e-21
-0.359375 	-0.96875 	0.5 	39.5062 	0.106515 	2.72221e-20
-0.34375 	-0.96875 	0.5 	39.5044 	0.101371 	7.81674e-20
-0.328125 	-0.96875 	0.5 	39.505 	0.0967253 	1.73373e-20
-0.3125 	-0.96875 	0.5 	39.5042 	0.0916152 	-6.24928e-20
-0.296875 	-0.96875 	0.5 	39.5039 	0.0860799 	-9.66723e-22
-0.28125 	-0.96875 	0.5 	39.5045 	0.0808603 	1.05429e-21
-0.265625 	-0.96875 	0.5 	39.5044 	0.0761028 	-9.2635e-22
-0.25 	-0.96875 	0.5 	39.5043 	0.0713174 	-6.13182e-21
-0.234375 	-0.96875 	0.5 	39.5043 	0.06647 	1.46159e-21
-0.21875 	-0.96875 	0.5 	39.5044 	0.0614811 	3.06515e-21
-0.203125 	-0.96875 	0.5 	39.5045 	0.0564922 	4.66871e-21
-0.1875 	-0.96875 	0.5 	39.5051 	0.0518689 	2.03364e-20
-0.171875 	-0.96875 	0.5 	39.5064 	0.0476441 	4.88985e-20
-0.15625 	-0.96875 	0.5 	39.508 	0.0430769 	2.59292e-20
-0.140625 	-0.96875 	0.5 	39.5087 	0.0393953 	-1.8377e-20
-0.125 	-0.96875 	0.5 	39.5097 	0.0345371 	9.98157e-22
-0.109375 	-0.96875 	0.5 	39.5113 	0.0301461 	-2.06618e-20
-0.09375 	-0.96875 	0.5 	39.513 	0.0262337 	3.90666e-21
-0.078125 	-0.96875 	0.5 	39.5144 	0.0218671 	8.38856e-21
-0.0625 	-0.96875 	0.5 	39.5156 	0.0181734 	-7.62233e-21
-0.046875 	-0.96875 	0.5 	39.5168 	0.0142945 	-1.78433e-20
-0.03125 	-0.96875 	0.5 	39.5185 	0.0106613 	7.42725e-20
-0.015625 	-0.96875 	0.5 	39.5202 	0.00737462 	5.20092e-20
0 	-0.96875 	0.5 	39.5219 	0.00397469 	-5.39645e-20
0.015625 	-0.96875 	0.5 	39.5238 	0.00127388 	-1.47355e-20
0.03125 	-0.96875 	0.5 	39.5255 	-0.00247292 	-5.43704e-21
0.046875 	-0.96875 	0.5 	39.5271 	-0.00638324 	7.89598e-23
0.0625 	-0.96875 	0.5 	39.529 	-0.00896629 	4.94527e-20
0.078125 	-0.96875 	0.5 	39.5308 	-0.0114841 	1.10966e-19
0.09375 	-0.96875 	0.5 	39.5332 	-0.0133984 	1.86148e-20
0.109375 	-0.96875 	0.5 	39.5338 	-0.0161929 	6.81657e-20
0.125 	-0.96875 	0.5 	39.5356 	-0.018569 	3.69077e-20
0.140625 	-0.96875 	0.5 	39.5376 	-0.0208384 	-1.49696e-20
0.15625 	-0.96875 	0.5 	39.5394 	-0.0232258 	2.67623e-21
0.171875 	-0.96875 	0.5 	39.5411 	-0.0254515 	-2.67267e-20
0.1875 	-0.96875 	0.5 	39.5426 	-0.0275904 	-2.78691e-20
0.203125 	-0.96875 	0.5 	39.5439 	-0.0295322 	1.47971e-20
0.21875 	-0.96875 	0.5 	39.5452 	-0.0312841 	1.6225e-20
0.234375 	-0.96875 	0.5 	39.5464 	-0.0331861 	-2.86267e-21
0.25 	-0.96875 	0.5 	39.5476 	-0.0347002 	-2.32597e-22
0.265625 	-0.96875 	0.5 	39.549 	-0.0364564 	7.06711e-21
0.28125 	-0.96875 	0.5 	39.5503 	-0.0382338 	1.16369e-20
0.296875 	-0.96875 	0.5 	39.5514 	-0.0399002 	1.25211e-20
0.3125 	-0.96875 	0.5 	39.5525 	-0.0415169 	1.88897e-20
0.328125 	-0.96875 	0.5 	39.5534 	-0.0431299 	5.1406e-20
0.34375 	-0.96875 	0.5 	39.5542 	-0.0448575 	2.35765e-20
0.359375 	-0.96875 	0.5 	39.555 	-0.0461815 	9.07742e-21
0.375 	-0.96875 	0.5 	39.5563 	-0.0479432 	-1.0809e-21
0.390625 	-0.96875 	0.5 	39.5569 	-0.049564 	1.184e-20
0.40625 	-0.96875 	0.5 	39.5571 	-0.0513463 	-2.33991e-20
0.421875 	-0.96875 	0.5 	39.5575 	-0.0528109 	-4.94804e-21
0.4375 	-0.96875 	0.5 	39.5577 	-0.0545765 	-3.85062e-21
0.453125 	-0.96875 	0.5 	39.5582 	-0.0561658 	9.09965e-22
0.46875 	-0.96875 	0.5 	39.5586 	-0.0579232 	4.21374e-21
0.484375 	-0.96875 	0.5 	39.5592 	-0.0598143 	6.86197e-21
0.5 	-0.96875 	0.5 	39.5595 	-0.0616488 	-7.06584e-21
0.515625 	-0.96875 	0.5 	39.5595 	-0.0635158 	1.28613e-20
0.53125 	-0.96875 	0.5 	39.5597 	-0.0654675 	-9.62755e-21
0.546875 	-0.96875 	0.5 	39.5598 	-0.0674549 	-1.70723e-20
0.5625 	-0.96875 	0.5 	39.5599 	-0.0694944 	-5.91546e-20
0.578125 	-0.96875 	0.5 	39.5599 	-0.0720576 	-1.52245e-20
0.59375 	-0.96875 	0.5 	39.5597 	-0.0741506 	-2.68181e-21
0.609375 	-0.96875 	0.5 	39.5597 	-0.0761946 	1.07618e-20
0.625 	-0.96875 	0.5 	39.5598 	-0.0785812 	3.99952e-20
0.640625 	-0.96875 	0.5 	39.5599 	-0.0808656 	8.92599e-20
0.65625 	-0.96875 	0.5 	39.5596 	-0.0831915 	3.74122e-21
0.671875 	-0.96875 	0.5 	39.5602 	-0.0858189 	1.11451e-20
0.6875 	-0.96875 	0.5 	39.5604 	-0.0882231 	-1.50987e-20
0.703125 	-0.96875 	0.5 	39.5606 	-0.091041 	-1.10158e-20
0.71875 	-0.96875 	0.5 	39.5607 	-0.0939601 	-1.03237e-21
0.734375 	-0.96875 	0.5 	39.5613 	-0.0969279 	8.75079e-22
0.75 	-0.96875 	0.5 	39.5611 	-0.0995296 	1.27451e-22
0.765625 	-0.96875 	0.5 	39.5612 	-0.102733 	1.33557e-20
0.78125 	-0.96875 	0.5 	39.5615 	-0.105747 	5.16402e-22
0.796875 	-0.96875 	0.5 	39.5619 	-0.108928 	-1.21844e-20
0.8125 	-0.96875 	0.5 	39.5625 	-0.11212 	8.71122e-21
0.828125 	-0.96875 	0.5 	39.5627 	-0.115179 	8.04859e-20
0.84375 	-0.96875 	0.5 	39.5633 	-0.11847 	4.31078e-20
0.859375 	-0.96875 	0.5 	39.5634 	-0.122214 	6.80203e-21
0.875 	-0.96875 	0.5 	39.5645 	-0.125203 	-6.2702e-20
0.890625 	-0.96875 	0.5 	39.5649 	-0.128811 	1.85217e-20
0.90625 	-0.96875 	0.5 	39.5657 	-0.132097 	-3.07452e-21
0.921875 	-0.96875 	0.5 	39.5663 	-0.134896 	3.94287e-21
0.9375 	-0.96875 	0.5 	39.5677 	-0.138945 	1.09435e-21
0.953125 	-0.96875 	0.5 	39.5685 	-0.142735 	-3.82695e-20
0.96875 	-0.96875 	0.5 	39.5701 	-0.146293 	-3.95594e-20
0.984375 	-0.96875 	0.5 	39.5714 	-0.149673 	-4.66323e-20
1 	-0.96875 	0.5 	39.573 	-0.153823 	-9.08226e-20
1.01562 	-0.96875 	0.5 	39.5744 	-0.157557 	-4.79848e-20
1.03125 	-0.96875 	0.5 	39.5759 	-0.161454 	-1.24981e-20
1.04688 	-0.96875 	0.5 	39.5774 	-0.165092 	-9.85411e-21
1.0625 	-0.96875 	0.5 	39.5789 	-0.168633 	-2.71568e-21
1.07812 	-0.96875 	0.5 	39.5805 	-0.17215 	-4.00042e-22
1.09375 	-0.96875 	0.5 	39.5824 	-0.174946 	4.15841e-20
1.10938 	-0.96875 	0.5 	39.5845 	-0.179739 	2.15302e-20
1.125 	-0.96875 	0.5 	39.5862 	-0.183186 	2.60578e-20
1.14062 	-0.96875 	0.5 	39.5888 	-0.186547 	1.21961e-20
1.15625 	-0.96875 	0.5 	39.5911 	-0.190063 	1.6751e-21
1.17188 	-0.96875 	0.5 	39.5935 	-0.193226 	9.77424e-22
1.1875 	-0.96875 	0.5 	39.5958 	-0.196831 	-1.00885e-19
1.20312 	-0.96875 	0.5 	39.5989 	-0.200341 	-3.59965e-20
1.21875 	-0.96875 	0.5 	39.6012 	-0.204478 	-1.4242e-20
1.23438 	-0.96875 	0.5 	39.6044 	-0.207331 	-2.8795e-20
1.25 	-0.96875 	0.5 	39.6065 	-0.210304 	-6.66004e-20
1.26562 	-0.96875 	0.5 	39.6091 	-0.213762 	-2.01751e-21
1.28125 	-0.96875 	0.5 	39.6129 	-0.218244 	1.0709e-19
1.29688 	-0.96875 	0.5 	39.6163 	-0.221756 	1.23122e-19
1.3125 	-0.96875 	0.5 	39.6189 	-0.223925 	2.2559e-20
1.32812 	-0.96875 	0.5 	39.6227 	-0.227045 	-1.21313e-20
1.34375 	-0.96875 	0.5 	39.6255 	-0.22948 	5.64879e-20
1.35938 	-0.96875 	0.5 	39.6293 	-0.232235 	3.57724e-20
1.375 	-0.96875 	0.5 	39.633 	-0.235175 	-3.29484e-21
1.39062 	-0.96875 	0.5 	39.6365 	-0.238157 	1.70313e-21
1.40625 	-0.96875 	0.5 	39.6403 	-0.240312 	-4.90006e-20
1.42188 	-0.96875 	0.5 	39.6439 	-0.243151 	2.96594e-20
1.4375 	-0.96875 	0.5 	39.6473 	-0.245767 	3.77632e-20
1.45312 	-0.96875 	0.5 	39.6508 	-0.247954 	-3.62911e-20
1.46875 	-0.96875 	0.5 	39.6545 	-0.24953 	1.4765e-19
1.48438 	-0.96875 	0.5 	39.6587 	-0.252371 	1.3769e-19
-0.5 	-0.953125 	0.5 	39.5136 	0.153984 	-9.68782e-21
-0.484375 	-0.953125 	0.5 	39.5118 	0.148638 	-2.53877e-22
-0.46875 	-0.953125 	0.5 	39.5097 	0.143972 	2.70806e-20
-0.453125 	-0.953125 	0.5 	39.5081 	0.138539 	-1.05081e-20
-0.4375 	-0.953125 	0.5 	39.5066 	0.133502 	-1.37337e-20
-0.421875 	-0.953125 	0.5 	39.505 	0.128212 	-6.64647e-21
-0.40625 	-0.953125 	0.5 	39.5038 	0.122527 	-1.91749e-21
-0.390625 	-0.953125 	0.5 	39.5026 	0.117202 	1.52747e-23
-0.375 	-0.953125 	0.5 	39.5013 	0.112249 	1.36628e-21
-0.359375 	-0.953125 	0.5 	39.5003 	0.107246 	1.10243e-20
-0.34375 	-0.953125 	0.5 	39.4994 	0.102283 	2.12424e-20
-0.328125 	-0.953125 	0.5 	39.4986 	0.0972283 	-6.03692e-20
-0.3125 	-0.953125 	0.5 	39.4976 	0.0919082 	-8.78894e-20
-0.296875 	-0.953125 	0.5 	39.4969 	0.0863493 	-1.00819e-20
-0.28125 	-0.953125 	0.5 	39.4976 	0.0811488 	-8.22575e-21
-0.265625 	-0.953125 	0.5 	39.4974 	0.0763391 	-8.66622e-21
-0.25 	-0.953125 	0.5 	39.4979 	0.0706834 	-4.55119e-21
-0.234375 	-0.953125 	0.5 	39.4989 	0.0656522 	4.28527e-21
-0.21875 	-0.953125 	0.5 	39.4995 	0.0620137 	2.02589e-21
-0.203125 	-0.953125 	0.5 	39.4991 	0.0555064 	1.10727e-20
-0.1875 	-0.953125 	0.5 	39.4996 	0.0506741 	1.9334e-21
-0.171875 	-0.953125 	0.5 	39.5011 	0.0468423 	-2.55669e-20
-0.15625 	-0.953125 	0.5 	39.5028 	0.0422583 	8.05907e-21
-0.140625 	-0.953125 	0.5 	39.5037 	0.0374137 	2.72413e-20
-0.125 	-0.953125 	0.5 	39.5045 	0.0328124 	2.62918e-20
-0.109375 	-0.953125 	0.5 	39.5063 	0.0285084 	-4.48973e-20
-0.09375 	-0.953125 	0.5 	39.5078 	0.0246003 	-1.66151e-20
-0.078125 	-0.953125 	0.5 	39.5096 	0.0203817 	-4.89796e-21
-0.0625 	-0.953125 	0.5 	39.5112 	0.0165095 	3.72422e-21
-0.046875 	-0.953125 	0.5 	39.5124 	0.0126308 	-7.41234e-21
-0.03125 	-0.953125 	0.5 	39.5138 	0.00905273 	9.189e-20
-0.015625 	-0.953125 	0.5 	39.5158 	0.00574309 	2.54682e-20
0 	-0.953125 	0.5 	39.5177 	0.00226254 	-1.65536e-20
0.015625 	-0.953125 	0.5 	39.5198 	-0.000953243 	3.70269e-20
0.03125 	-0.953125 	0.5 	39.5215 	-0.00455109 	4.53815e-20
0.046875 	-0.953125 	0.5 	39.5233 	-0.00812797 	1.76941e-20
0.0625 	-0.953125 	0.5 	39.5254 	-0.0108021 	-4.5036e-20
0.078125 	-0.953125 	0.5 	39.5271 	-0.012806 	6.04191e-21
0.09375 	-0.953125 	0.5 	39.529 	-0.0152381 	5.13026e-20
0.109375 	-0.953125 	0.5 	39.5305 	-0.0175717 	2.23554e-20
0.125 	-0.953125 	0.5 	39.5325 	-0.0198092 	-3.58753e-20
0.140625 	-0.953125 	0.5 	39.5345 	-0.0225297 	-2.84851e-20
0.15625 	-0.953125 	0.5 	39.5363 	-0.0246777 	7.95542e-21
0.171875 	-0.953125 	0.5 	39.5378 	-0.0269249 	-4.88078e-21
0.1875 	-0.953125 	0.5 	39.5394 	-0.0291797 	-2.52273e-20
0.203125 	-0.953125 	0.5 	39.5408 	-0.0309777 	1.80103e-21
0.21875 	-0.953125 	0.5 	39.5421 	-0.0327622 	-2.9455e-21
0.234375 	-0.953125 	0.5 	39.5433 	-0.0345467 	-7.69202e-21
0.25 	-0.953125 	0.5 	39.5447 	-0.0362549 	1.0474e-20
0.265625 	-0.953125 	0.5 	39.5462 	-0.037887 	5.17348e-20
0.28125 	-0.953125 	0.5 	39.5477 	-0.0391341 	4.02461e-21
0.296875 	-0.953125 	0.5 	39.5488 	-0.0407888 	5.4599e-21
0.3125 	-0.953125 	0.5 	39.5501 	-0.0423578 	5.84917e-21
0.328125 	-0.953125 	0.5 	39.5509 	-0.0441159 	2.59746e-20
0.34375 	-0.953125 	0.5 	39.5517 	-0.0457494 	2.38308e-20
0.359375 	-0.953125 	0.5 	39.5527 	-0.0472569 	9.60819e-21
0.375 	-0.953125 	0.5 	39.5536 	-0.0486742 	1.45704e-21
0.390625 	-0.953125 	0.5 	39.5542 	-0.0503219 	-1.67328e-22
0.40625 	-0.953125 	0.5 	39.5547 	-0.0518276 	-1.50531e-20
0.421875 	-0.953125 	0.5 	39.555 	-0.0533617 	-1.19132e-20
0.4375 	-0.953125 	0.5 	39.5554 	-0.0549937 	-1.96592e-21
0.453125 	-0.953125 	0.5 	39.5557 	-0.0565593 	3.21365e-21
0.46875 	-0.953125 	0.5 	39.556 	-0.0581631 	1.08275e-20
0.484375 	-0.953125 	0.5 	39.5564 	-0.0599698 	5.42923e-21
0.5 	-0.953125 	0.5 	39.5567 	-0.0618302 	-1.00809e-20
0.515625 	-0.953125 	0.5 	39.5568 	-0.0636845 	-2.33021e-20
0.53125 	-0.953125 	0.5 	39.5568 	-0.065531 	-3.48364e-20
0.546875 	-0.953125 	0.5 	39.557 	-0.0675334 	4.289e-20
0.5625 	-0.953125 	0.5 	39.5571 	-0.0698479 	-2.14396e-20
0.578125 	-0.953125 	0.5 	39.557 	-0.0721032 	-3.27767e-21
0.59375 	-0.953125 	0.5 	39.5569 	-0.074171 	2.5311e-20
0.609375 	-0.953125 	0.5 	39.5569 	-0.0761748 	5.85803e-21
0.625 	-0.953125 	0.5 	39.5566 	-0.0787953 	-1.98175e-20
0.640625 	-0.953125 	0.5 	39.5564 	-0.0813708 	-4.93689e-20
0.65625 	-0.953125 	0.5 	39.5564 	-0.0831924 	-3.69502e-21
0.671875 	-0.953125 	0.5 	39.5566 	-0.0858554 	7.97132e-22
0.6875 	-0.953125 	0.5 	39.5571 	-0.0883843 	-6.65149e-21
0.703125 	-0.953125 	0.5 	39.5569 	-0.0910268 	-4.77726e-21
0.71875 	-0.953125 	0.5 	39.5571 	-0.0941879 	-4.74574e-21
0.734375 	-0.953125 	0.5 	39.5575 	-0.0972646 	-1.83129e-21
0.75 	-0.953125 	0.5 	39.5574 	-0.100388 	2.97404e-22
0.765625 	-0.953125 	0.5 	39.5576 	-0.103334 	-2.568e-21
0.78125 	-0.953125 	0.5 	39.5579 	-0.106355 	-6.9023e-21
0.796875 	-0.953125 	0.5 	39.558 	-0.109297 	-9.64504e-21
0.8125 	-0.953125 	0.5 	39.5583 	-0.112382 	1.16917e-20
0.828125 	-0.953125 	0.5 	39.5586 	-0.115577 	6.79819e-20
0.84375 	-0.953125 	0.5 	39.5592 	-0.118941 	7.71138e-20
0.859375 	-0.953125 	0.5 	39.5593 	-0.122664 	5.11373e-20
0.875 	-0.953125 	0.5 	39.5594 	-0.126294 	1.39271e-20
0.890625 	-0.953125 	0.5 	39.5613 	-0.13014 	5.56097e-20
0.90625 	-0.953125 	0.5 	39.5622 	-0.133429 	3.43446e-20
0.921875 	-0.953125 	0.5 	39.5623 	-0.136111 	1.08671e-21
0.9375 	-0.953125 	0.5 	39.5634 	-0.140137 	-2.53984e-20
0.953125 	-0.953125 	0.5 	39.564 	-0.14394 	-6.97264e-20
0.96875 	-0.953125 	0.5 	39.5656 	-0.147507 	-5.94904e-20
0.984375 	-0.953125 	0.5 	39.5671 	-0.151134 	-5.29104e-20
1 	-0.953125 	0.5 	39.5688 	-0.155343 	-2.55762e-20
1.01562 	-0.953125 	0.5 	39.5704 	-0.159503 	-5.204e-22
1.03125 	-0.953125 	0.5 	39.5707 	-0.162712 	-2.66921e-20
1.04688 	-0.953125 	0.5 	39.5732 	-0.167582 	-1.89593e-20
1.0625 	-0.953125 	0.5 	39.5745 	-0.170433 	-1.10877e-20
1.07812 	-0.953125 	0.5 	39.5761 	-0.173956 	-7.56467e-21
1.09375 	-0.953125 	0.5 	39.5781 	-0.176534 	4.91832e-20
1.10938 	-0.953125 	0.5 	39.5802 	-0.180922 	4.57039e-20
1.125 	-0.953125 	0.5 	39.5823 	-0.185824 	2.115e-20
1.14062 	-0.953125 	0.5 	39.5846 	-0.189272 	1.45366e-20
1.15625 	-0.953125 	0.5 	39.5869 	-0.192668 	9.08975e-21
1.17188 	-0.953125 	0.5 	39.5892 	-0.195999 	6.08751e-21
1.1875 	-0.953125 	0.5 	39.5916 	-0.199325 	-3.80157e-20
1.20312 	-0.953125 	0.5 	39.5942 	-0.203249 	1.647e-21
1.21875 	-0.953125 	0.5 	39.5964 	-0.207438 	6.20884e-21
1.23438 	-0.953125 	0.5 	39.5998 	-0.210508 	3.83914e-21
1.25 	-0.953125 	0.5 	39.6027 	-0.21339 	-1.63429e-20
1.26562 	-0.953125 	0.5 	39.6059 	-0.217336 	6.31123e-20
1.28125 	-0.953125 	0.5 	39.6094 	-0.221146 	1.04967e-19
1.29688 	-0.953125 	0.5 	39.6127 	-0.224455 	1.03376e-19
1.3125 	-0.953125 	0.5 	39.6159 	-0.227703 	9.65408e-20
1.32812 	-0.953125 	0.5 	39.619 	-0.230203 	1.45148e-20
1.34375 	-0.953125 	0.5 	39.6224 	-0.232868 	2.36814e-20
1.35938 	-0.953125 	0.5 	39.6258 	-0.23603 	-3.04243e-20
1.375 	-0.953125 	0.5 	39.6293 	-0.239192 	-8.45299e-20
1.39062 	-0.953125 	0.5 	39.6328 	-0.241994 	-1.99898e-20
1.40625 	-0.953125 	0.5 	39.6365 	-0.243644 	-1.5805e-19
1.42188 	-0.953125 	0.5 	39.6403 	-0.24611 	-1.54525e-19
1.4375 	-0.953125 	0.5 	39.6443 	-0.249248 	-3.27627e-20
1.45312 	-0.953125 	0.5 	39.6485 	-0.251965 	1.45616e-20
1.46875 	-0.953125 	0.5 	39.6525 	-0.254267 	7.70657e-20
1.48438 	-0.953125 	0.5 	39.6564 	-0.256569 	1.3957e-19
-0.5 	-0.9375 	0.5 	39.5081 	0.155925 	-4.93477e-21
-0.484375 	-0.9375 	0.5 	39.5054 	0.152281 	-2.12865e-20
-0.46875 	-0.9375 	0.5 	39.5037 	0.146628 	-1.61255e-20
-0.453125 	-0.9375 	0.5 	39.5021 	0.140476 	-6.90884e-21
-0.4375 	-0.9375 	0.5 	39.5005 	0.135189 	-7.76855e-21
-0.421875 	-0.9375 	0.5 	39.4989 	0.129873 	-8.01169e-21
-0.40625 	-0.9375 	0.5 	39.4977 	0.124349 	-3.76413e-21
-0.390625 	-0.9375 	0.5 	39.4968 	0.117886 	6.1738e-21
-0.375 	-0.9375 	0.5 	39.4956 	0.112835 	6.17007e-21
-0.359375 	-0.9375 	0.5 	39.4943 	0.107928 	5.15553e-21
-0.34375 	-0.9375 	0.5 	39.4933 	0.10273 	-8.60686e-21
-0.328125 	-0.9375 	0.5 	39.4923 	0.0973704 	-1.87783e-20
-0.3125 	-0.9375 	0.5 	39.4913 	0.0920112 	-2.89497e-20
-0.296875 	-0.9375 	0.5 	39.4903 	0.0866395 	-3.35345e-20
-0.28125 	-0.9375 	0.5 	39.4907 	0.0812078 	-1.17516e-20
-0.265625 	-0.9375 	0.5 	39.4916 	0.075462 	7.61357e-22
-0.25 	-0.9375 	0.5 	39.4914 	0.0699309 	-6.73791e-21
-0.234375 	-0.9375 	0.5 	39.4928 	0.0661924 	1.17211e-20
-0.21875 	-0.9375 	0.5 	39.4937 	0.0598879 	1.27014e-20
-0.203125 	-0.9375 	0.5 	39.4945 	0.0545669 	5.00036e-20
-0.1875 	-0.9375 	0.5 	39.4952 	0.0496958 	5.64552e-20
-0.171875 	-0.9375 	0.5 	39.4954 	0.0459139 	-5.1592e-20
-0.15625 	-0.9375 	0.5 	39.4971 	0.0409821 	1.02972e-20
-0.140625 	-0.9375 	0.5 	39.4977 	0.036134 	5.45507e-20
-0.125 	-0.9375 	0.5 	39.4995 	0.0322067 	8.11261e-21
-0.109375 	-0.9375 	0.5 	39.5008 	0.0277878 	-6.71836e-21
-0.09375 	-0.9375 	0.5 	39.5029 	0.0229036 	5.03587e-20