-0.5 	-1 	0.5 	39.4406 	0.219632 	3.83856e-21
-0.484375 	-1 	0.5 	39.4362 	0.214181 	1.22919e-20
-0.46875 	-1 	0.5 	39.4329 	0.208479 	1.14702e-20
-0.453125 	-1 	0.5 	39.429 	0.203858 	2.28621e-20
-0.4375 	-1 	0.5 	39.4248 	0.197234 	5.43032e-21
-0.421875 	-1 	0.5 	39.4203 	0.19113 	1.25545e-20
-0.40625 	-1 	0.5 	39.418 	0.184831 	-1.68753e-20
-0.390625 	-1 	0.5 	39.4154 	0.179204 	-3.9391e-20
-0.375 	-1 	0.5 	39.413 	0.174262 	-1.64348e-20
-0.359375 	-1 	0.5 	39.4112 	0.169407 	-3.74262e-20
-0.34375 	-1 	0.5 	39.4089 	0.163864 	-2.96921e-20
-0.328125 	-1 	0.5 	39.4065 	0.157616 	1.76395e-20
-0.3125 	-1 	0.5 	39.4045 	0.151983 	4.84031e-20
-0.296875 	-1 	0.5 	39.4028 	0.14632 	4.08007e-20
-0.28125 	-1 	0.5 	39.4012 	0.140448 	-3.22984e-21
-0.265625 	-1 	0.5 	39.3995 	0.133916 	-2.71001e-20
-0.25 	-1 	0.5 	39.3975 	0.127032 	-1.87671e-20
-0.234375 	-1 	0.5 	39.3958 	0.120752 	-5.71862e-21
-0.21875 	-1 	0.5 	39.3947 	0.114378 	-2.30134e-21
-0.203125 	-1 	0.5 	39.3939 	0.108377 	-1.02887e-20
-0.1875 	-1 	0.5 	39.3935 	0.102374 	3.40598e-20
-0.171875 	-1 	0.5 	39.3932 	0.0965217 	1.00263e-20
-0.15625 	-1 	0.5 	39.3932 	0.0903976 	-1.66554e-21
-0.140625 	-1 	0.5 	39.3936 	0.0844353 	5.13121e-21
-0.125 	-1 	0.5 	39.3926 	0.0789586 	3.52341e-20
-0.109375 	-1 	0.5 	39.3933 	0.0734753 	-8.37508e-21
-0.09375 	-1 	0.5 	39.3929 	0.0676569 	-7.17905e-20
-0.078125 	-1 	0.5 	39.393 	0.060635 	-1.12135e-20
-0.0625 	-1 	0.5 	39.393 	0.0542676 	5.35567e-21
-0.046875 	-1 	0.5 	39.3933 	0.0484552 	1.04693e-20
-0.03125 	-1 	0.5 	39.3937 	0.0426429 	1.55829e-20
-0.015625 	-1 	0.5 	39.3947 	0.037019 	6.46761e-21
0 	-1 	0.5 	39.3959 	0.0318226 	9.23161e-20
0.015625 	-1 	0.5 	39.3972 	0.0265176 	1.06202e-19
0.03125 	-1 	0.5 	39.3984 	0.0210515 	4.56052e-20
0.046875 	-1 	0.5 	39.4002 	0.0157779 	2.86315e-20
0.0625 	-1 	0.5 	39.4017 	0.0104079 	3.4142e-21
0.078125 	-1 	0.5 	39.4033 	0.00439977 	2.23773e-22
0.09375 	-1 	0.5 	39.4049 	9.48586e-05 	1.62489e-22
0.109375 	-1 	0.5 	39.4068 	-0.00531743 	-1.49715e-21
0.125 	-1 	0.5 	39.4092 	-0.0102596 	-1.04843e-22
0.140625 	-1 	0.5 	39.4106 	-0.0144947 	7.69596e-23
0.15625 	-1 	0.5 	39.4129 	-0.019393 	5.08094e-21
0.171875 	-1 	0.5 	39.4154 	-0.0244007 	9.27496e-21
0.1875 	-1 	0.5 	39.4169 	-0.028873 	3.0791e-20
0.203125 	-1 	0.5 	39.4183 	-0.0332301 	4.16612e-20
0.21875 	-1 	0.5 	39.4207 	-0.0371604 	-1.29562e-20
0.234375 	-1 	0.5 	39.4234 	-0.041467 	-1.78827e-20
0.25 	-1 	0.5 	39.4253 	-0.0446762 	-2.0557e-20
0.265625 	-1 	0.5 	39.4271 	-0.0500659 	1.09519e-20
0.28125 	-1 	0.5 	39.4292 	-0.0541561 	1.87101e-20
0.296875 	-1 	0.5 	39.432 	-0.0565789 	-2.68213e-21
0.3125 	-1 	0.5 	39.4343 	-0.0602412 	1.71057e-20
0.328125 	-1 	0.5 	39.4367 	-0.0640462 	5.17325e-20
0.34375 	-1 	0.5 	39.4383 	-0.0673047 	2.41177e-20
0.359375 	-1 	0.5 	39.4412 	-0.070792 	2.06233e-20
0.375 	-1 	0.5 	39.4435 	-0.0739458 	5.08253e-20
0.390625 	-1 	0.5 	39.4458 	-0.0768391 	2.05848e-20
0.40625 	-1 	0.5 	39.4482 	-0.0799926 	2.16177e-20
0.421875 	-1 	0.5 	39.45 	-0.0826434 	-1.7551e-20
0.4375 	-1 	0.5 	39.452 	-0.08518 	3.5272e-20
0.453125 	-1 	0.5 	39.4541 	-0.087838 	5.46599e-20
0.46875 	-1 	0.5 	39.4565 	-0.0907795 	-1.31528e-21
0.484375 	-1 	0.5 	39.459 	-0.0933506 	-7.53748e-21
0.5 	-1 	0.5 	39.4613 	-0.0958111 	-1.74469e-20
0.515625 	-1 	0.5 	39.4632 	-0.0981926 	-3.04086e-20
0.53125 	-1 	0.5 	39.465 	-0.100474 	1.13818e-20
0.546875 	-1 	0.5 	39.4668 	-0.102956 	3.02996e-20
0.5625 	-1 	0.5 	39.4686 	-0.105851 	9.83807e-21
0.578125 	-1 	0.5 	39.4706 	-0.108518 	2.72672e-21
0.59375 	-1 	0.5 	39.4719 	-0.111022 	2.53496e-20
0.609375 	-1 	0.5 	39.4737 	-0.11323 	2.33884e-20
0.625 	-1 	0.5 	39.4757 	-0.115372 	3.61565e-21
0.640625 	-1 	0.5 	39.4772 	-0.117737 	1.33237e-20
0.65625 	-1 	0.5 	39.4788 	-0.1203 	1.33652e-20
0.671875 	-1 	0.5 	39.4802 	-0.12251 	9.31676e-21
0.6875 	-1 	0.5 	39.4816 	-0.124565 	8.19395e-22
0.703125 	-1 	0.5 	39.4833 	-0.127002 	-1.53088e-20
0.71875 	-1 	0.5 	39.4846 	-0.129532 	-2.35992e-20
0.734375 	-1 	0.5 	39.486 	-0.131578 	-1.22938e-21
0.75 	-1 	0.5 	39.4874 	-0.134188 	7.75093e-21
0.765625 	-1 	0.5 	39.4888 	-0.13684 	1.65416e-20
0.78125 	-1 	0.5 	39.4897 	-0.139232 	2.75286e-20
0.796875 	-1 	0.5 	39.4907 	-0.141624 	3.85156e-20
0.8125 	-1 	0.5 	39.4919 	-0.144139 	-3.15913e-22
0.828125 	-1 	0.5 	39.4931 	-0.146671 	4.89926e-21
0.84375 	-1 	0.5 	39.4948 	-0.149771 	6.85806e-20
0.859375 	-1 	0.5 	39.4961 	-0.152421 	3.99299e-20
0.875 	-1 	0.5 	39.4973 	-0.154929 	2.91635e-20
0.890625 	-1 	0.5 	39.4984 	-0.157981 	1.83581e-20
0.90625 	-1 	0.5 	39.4994 	-0.160866 	1.621e-20
0.921875 	-1 	0.5 	39.5008 	-0.163645 	-1.81642e-20
0.9375 	-1 	0.5 	39.5023 	-0.166525 	-2.036e-20
0.953125 	-1 	0.5 	39.5036 	-0.169879 	-9.07839e-21
0.96875 	-1 	0.5 	39.5053 	-0.172627 	2.4018e-20
0.984375 	-1 	0.5 	39.5065 	-0.176434 	-1.65162e-20
1 	-1 	0.5 	39.5084 	-0.180214 	-9.40005e-20
1.01562 	-1 	0.5 	39.5093 	-0.182707 	-3.86967e-21
1.03125 	-1 	0.5 	39.511 	-0.185441 	1.08257e-20
1.04688 	-1 	0.5 	39.5132 	-0.188686 	-3.1477e-21
1.0625 	-1 	0.5 	39.5151 	-0.192206 	2.63481e-20
1.07812 	-1 	0.5 	39.5167 	-0.19521 	1.44037e-20
1.09375 	-1 	0.5 	39.5184 	-0.198429 	5.59824e-20
1.10938 	-1 	0.5 	39.5202 	-0.201256 	-3.33194e-21
1.125 	-1 	0.5 	39.5228 	-0.205467 	9.98468e-21
1.14062 	-1 	0.5 	39.5239 	-0.208485 	6.99841e-20
1.15625 	-1 	0.5 	39.5266 	-0.212109 	4.36705e-20
1.17188 	-1 	0.5 	39.5294 	-0.215492 	-2.04265e-20
1.1875 	-1 	0.5 	39.5321 	-0.219359 	3.43746e-22
1.20312 	-1 	0.5 	39.5345 	-0.222389 	2.36981e-21
1.21875 	-1 	0.5 	39.5369 	-0.225302 	4.46955e-21
1.23438 	-1 	0.5 	39.5393 	-0.228585 	4.44618e-21
1.25 	-1 	0.5 	39.5415 	-0.231918 	-7.43881e-21
1.26562 	-1 	0.5 	39.5447 	-0.235461 	1.52135e-20
1.28125 	-1 	0.5 	39.5476 	-0.238784 	1.44289e-20
1.29688 	-1 	0.5 	39.5514 	-0.241083 	4.28034e-21
1.3125 	-1 	0.5 	39.5552 	-0.243946 	8.96247e-21
1.32812 	-1 	0.5 	39.5588 	-0.247007 	1.39756e-20
1.34375 	-1 	0.5 	39.5615 	-0.250185 	1.37909e-20
1.35938 	-1 	0.5 	39.564 	-0.25346 	1.7094e-20
1.375 	-1 	0.5 	39.5672 	-0.256753 	-1.20846e-21
1.39062 	-1 	0.5 	39.5708 	-0.259932 	-1.41327e-21
1.40625 	-1 	0.5 	39.5746 	-0.263099 	5.83141e-23
1.42188 	-1 	0.5 	39.5781 	-0.265638 	-7.7633e-22
1.4375 	-1 	0.5 	39.5816 	-0.267951 	-4.20456e-21
1.45312 	-1 	0.5 	39.5852 	-0.271263 	-1.57626e-21
1.46875 	-1 	0.5 	39.5892 	-0.274078 	1.17448e-20
1.48438 	-1 	0.5 	39.5931 	-0.27656 	7.65786e-21
-0.5 	-0.984375 	0.5 	39.4339 	0.222657 	1.95738e-20
-0.484375 	-0.984375 	0.5 	39.4299 	0.217443 	1.84411e-20
-0.46875 	-0.984375 	0.5 	39.4258 	0.212121 	1.99531e-20
-0.453125 	-0.984375 	0.5 	39.4215 	0.20572 	1.308e-20
-0.4375 	-0.984375 	0.5 	39.4172 	0.199337 	7.00493e-21
-0.421875 	-0.984375 	0.5 	39.4129 	0.192953 	9.29839e-22
-0.40625 	-0.984375 	0.5 	39.4102 	0.187528 	-1.28861e-20
-0.390625 	-0.984375 	0.5 	39.4084 	0.182553 	-2.82179e-20
-0.375 	-0.984375 	0.5 	39.4065 	0.177579 	-4.35497e-20
-0.359375 	-0.984375 	0.5 	39.4044 	0.172066 	-3.34469e-20
-0.34375 	-0.984375 	0.5 	39.402 	0.166675 	-3.62406e-20
-0.328125 	-0.984375 	0.5 	39.3994 	0.159717 	-1.51313e-20
-0.3125 	-0.984375 	0.5 	39.3972 	0.15411 	4.80224e-20
-0.296875 	-0.984375 	0.5 	39.3957 	0.148416 	8.57051e-22
-0.28125 	-0.984375 	0.5 	39.3936 	0.141919 	-1.18606e-21
-0.265625 	-0.984375 	0.5 	39.3927 	0.136064 	-9.1969e-21
-0.25 	-0.984375 	0.5 	39.3898 	0.128467 	-8.46121e-20
-0.234375 	-0.984375 	0.5 	39.3883 	0.121892 	-4.12938e-20
-0.21875 	-0.984375 	0.5 	39.3868 	0.115208 	-1.56054e-20
-0.203125 	-0.984375 	0.5 	39.3864 	0.109035 	3.21813e-20
-0.1875 	-0.984375 	0.5 	39.3859 	0.102896 	8.02479e-20
-0.171875 	-0.984375 	0.5 	39.3857 	0.097233 	8.62075e-21
-0.15625 	-0.984375 	0.5 	39.3856 	0.091055 	-6.24111e-22
-0.140625 	-0.984375 	0.5 	39.386 	0.0849362 	1.58516e-21
-0.125 	-0.984375 	0.5 	39.3866 	0.0788819 	3.96727e-21
-0.109375 	-0.984375 	0.5 	39.3864 	0.0733988 	-2.24348e-20
-0.09375 	-0.984375 	0.5 	39.386 	0.0665598 	5.63252e-20
-0.078125 	-0.984375 	0.5 	39.3855 	0.0599531 	1.36591e-19
-0.0625 	-0.984375 	0.5 	39.3859 	0.0538767 	9.16215e-21
-0.046875 	-0.984375 	0.5 	39.3861 	0.0477895 	1.49433e-20
-0.03125 	-0.984375 	0.5 	39.3872 	0.0426567 	2.34958e-20
-0.015625 	-0.984375 	0.5 	39.3876 	0.0361996 	-2.76031e-20
0 	-0.984375 	0.5 	39.3893 	0.0300818 	-5.46038e-21
0.015625 	-0.984375 	0.5 	39.3905 	0.0249935 	1.52304e-19
0.03125 	-0.984375 	0.5 	39.3916 	0.0194074 	3.61625e-20
0.046875 	-0.984375 	0.5 	39.3923 	0.0148951 	1.95352e-21
0.0625 	-0.984375 	0.5 	39.3949 	0.0090197 	1.95538e-21
0.078125 	-0.984375 	0.5 	39.3971 	0.00370615 	-4.51448e-22
0.09375 	-0.984375 	0.5 	39.3991 	-0.00197219 	-5.2705e-21
0.109375 	-0.984375 	0.5 	39.4009 	-0.00733064 	-9.34741e-21
0.125 	-0.984375 	0.5 	39.4036 	-0.0121235 	-2.11991e-21
0.140625 	-0.984375 	0.5 	39.4055 	-0.0170542 	6.16961e-22
0.15625 	-0.984375 	0.5 	39.4074 	-0.0214921 	3.53787e-21
0.171875 	-0.984375 	0.5 	39.4084 	-0.0274134 	2.6676e-21
0.1875 	-0.984375 	0.5 	39.4103 	-0.0311807 	2.7828e-21
0.203125 	-0.984375 	0.5 	39.4121 	-0.035141 	1.35404e-20
0.21875 	-0.984375 	0.5 	39.4157 	-0.0395931 	-2.42545e-20
0.234375 	-0.984375 	0.5 	39.4185 	-0.0439018 	-2.93139e-20
0.25 	-0.984375 	0.5 	39.42 	-0.0476962 	-1.44099e-20
0.265625 	-0.984375 	0.5 	39.4222 	-0.0517076 	-8.88085e-21
0.28125 	-0.984375 	0.5 	39.4244 	-0.0554921 	-3.21641e-21
0.296875 	-0.984375 	0.5 	39.4273 	-0.0591996 	4.05863e-21
0.3125 	-0.984375 	0.5 	39.4295 	-0.0619507 	-2.75188e-20
0.328125 	-0.984375 	0.5 	39.4311 	-0.0657662 	1.12195e-20
0.34375 	-0.984375 	0.5 	39.4345 	-0.068711 	-2.16975e-20
0.359375 	-0.984375 	0.5 	39.4372 	-0.0725913 	-1.04978e-20
0.375 	-0.984375 	0.5 	39.4393 	-0.0762406 	6.2518e-20
0.390625 	-0.984375 	0.5 	39.4416 	-0.079078 	1.93298e-20
0.40625 	-0.984375 	0.5 	39.444 	-0.0820287 	-7.26086e-21
0.421875 	-0.984375 	0.5 	39.4465 	-0.0848768 	3.9402e-21
0.4375 	-0.984375 	0.5 	39.4487 	-0.0877339 	1.09087e-20
0.453125 	-0.984375 	0.5 	39.4507 	-0.0903629 	4.39442e-20
0.46875 	-0.984375 	0.5 	39.4531 	-0.0931712 	8.35682e-21
0.484375 	-0.984375 	0.5 	39.4551 	-0.0957378 	7.16883e-22
0.5 	-0.984375 	0.5 	39.4574 	-0.0981676 	-2.34269e-21
0.515625 	-0.984375 	0.5 	39.4594 	-0.100775 	-8.76363e-20
0.53125 	-0.984375 	0.5 	39.4613 	-0.10278 	2.55943e-20
0.546875 	-0.984375 	0.5 	39.4634 	-0.105015 	2.68714e-20
0.5625 	-0.984375 	0.5 	39.4651 	-0.107751 	6.7244e-20
0.578125 	-0.984375 	0.5 	39.4671 	-0.110303 	-1.40337e-20
0.59375 	-0.984375 	0.5 	39.4688 	-0.112563 	-2.13419e-20
0.609375 	-0.984375 	0.5 	39.4705 	-0.114855 	-2.81831e-20
0.625 	-0.984375 	0.5 	39.4724 	-0.11703 	2.73974e-20
0.640625 	-0.984375 	0.5 	39.474 	-0.119226 	5.29326e-21
0.65625 	-0.984375 	0.5 	39.4755 	-0.121725 	1.46232e-20
0.671875 	-0.984375 	0.5 	39.477 	-0.123967 	2.68305e-21
0.6875 	-0.984375 	0.5 	39.4785 	-0.125945 	-3.75707e-21
0.703125 	-0.984375 	0.5 	39.4802 	-0.128118 	-3.61183e-20
0.71875 	-0.984375 	0.5 	39.4815 	-0.13066 	-4.34793e-20
0.734375 	-0.984375 	0.5 	39.4825 	-0.133401 	-5.77242e-21
0.75 	-0.984375 	0.5 	39.4838 	-0.136115 	9.36758e-22
0.765625 	-0.984375 	0.5 	39.4848 	-0.138674 	5.00381e-21
0.78125 	-0.984375 	0.5 	39.4858 	-0.14079 	2.6764e-20
0.796875 	-0.984375 	0.5 	39.4868 	-0.143228 	2.27821e-20
0.8125 	-0.984375 	0.5 	39.4884 	-0.145473 	-8.13333e-20
0.828125 	-0.984375 	0.5 	39.4897 	-0.147945 	-9.02946e-20
0.84375 	-0.984375 	0.5 	39.4905 	-0.150784 	3.47976e-21
0.859375 	-0.984375 	0.5 	39.4919 	-0.153539 	9.58712e-21
0.875 	-0.984375 	0.5 	39.493 	-0.156081 	2.09983e-20
0.890625 	-0.984375 	0.5 	39.4943 	-0.159039 	-1.82535e-21
0.90625 	-0.984375 	0.5 	39.4955 	-0.161994 	-2.30474e-20
0.921875 	-0.984375 	0.5 	39.4973 	-0.164794 	-4.97594e-20
0.9375 	-0.984375 	0.5 	39.4983 	-0.16776 	-1.47679e-20
0.953125 	-0.984375 	0.5 	39.5001 	-0.170656 	-6.89044e-20
0.96875 	-0.984375 	0.5 	39.5012 	-0.174233 	-2.21615e-20
0.984375 	-0.984375 	0.5 	39.5025 	-0.177659 	3.18523e-21
1 	-0.984375 	0.5 	39.5039 	-0.180839 	1.16258e-21
1.01562 	-0.984375 	0.5 	39.5054 	-0.18402 	-8.60072e-22
1.03125 	-0.984375 	0.5 	39.5068 	-0.1872 	-2.88273e-21
1.04688 	-0.984375 	0.5 	39.5085 	-0.190355 	-2.12699e-22
1.0625 	-0.984375 	0.5 	39.5101 	-0.193518 	4.15439e-21
1.07812 	-0.984375 	0.5 	39.5118 	-0.196681 	8.52148e-21
1.09375 	-0.984375 	0.5 	39.5134 	-0.199763 	8.60925e-21
1.10938 	-0.984375 	0.5 	39.5161 	-0.202844 	-2.74387e-20
1.125 	-0.984375 	0.5 	39.5187 	-0.207163 	-1.18193e-20
1.14062 	-0.984375 	0.5 	39.5203 	-0.210837 	4.17446e-20
1.15625 	-0.984375 	0.5 	39.523 	-0.21419 	-2.27173e-20
1.17188 	-0.984375 	0.5 	39.5249 	-0.217181 	-5.3739e-20
1.1875 	-0.984375 	0.5 	39.528 	-0.22155 	-1.58999e-21
1.20312 	-0.984375 	0.5 	39.5306 	-0.225409 	-1.80959e-21
1.21875 	-0.984375 	0.5 	39.533 	-0.228072 	1.88316e-21
1.23438 	-0.984375 	0.5 	39.5354 	-0.231518 	1.02458e-22
1.25 	-0.984375 	0.5 	39.5366 	-0.234501 	-3.92511e-20
1.26562 	-0.984375 	0.5 	39.54 	-0.238314 	-1.36946e-20
1.28125 	-0.984375 	0.5 	39.5435 	-0.242139 	1.27555e-20
1.29688 	-0.984375 	0.5 	39.5472 	-0.245489 	1.04696e-20
1.3125 	-0.984375 	0.5 	39.5509 	-0.248879 	6.76291e-21
1.32812 	-0.984375 	0.5 	39.5546 	-0.250662 	9.74673e-21
1.34375 	-0.984375 	0.5 	39.5563 	-0.253627 	3.99968e-20
1.35938 	-0.984375 	0.5 	39.5599 	-0.256898 	1.29268e-20
1.375 	-0.984375 	0.5 	39.563 	-0.260615 	-2.87792e-20
1.39062 	-0.984375 	0.5 	39.5668 	-0.263441 	-1.2684e-20
1.40625 	-0.984375 	0.5 	39.5707 	-0.266515 	-4.42865e-21
1.42188 	-0.984375 	0.5 	39.5741 	-0.268843 	-6.03376e-21
1.4375 	-0.984375 	0.5 	39.5783 	-0.272174 	-1.09357e-20
1.45312 	-0.984375 	0.5 	39.5817 	-0.275443 	-6.26186e-21
1.46875 	-0.984375 	0.5 	39.5849 	-0.278525 	3.83965e-21
1.48438 	-0.984375 	0.5 	39.5891 	-0.281296 	1.29693e-21
-0.5 	-0.96875 	0.5 	39.4277 	0.225105 	1.5046e-19
-0.484375 	-0.96875 	0.5 	39.4233 	0.22119 	6.33618e-20
-0.46875 	-0.96875 	0.5 	39.419 	0.215764 	8.7064e-21
-0.453125 	-0.96875 	0.5 	39.4147 	0.20993 	3.29423e-21
-0.4375 	-0.96875 	0.5 	39.4104 	0.203604 	-3.16159e-21
-0.421875 	-0.96875 	0.5 	39.407 	0.196939 	-7.02085e-21
-0.40625 	-0.96875 	0.5 	39.4036 	0.19022 	7.65808e-22
-0.390625 	-0.96875 	0.5 	39.4023 	0.186877 	1.57097e-20
-0.375 	-0.96875 	0.5 	39.3999 	0.180715 	-7.3994e-21
-0.359375 	-0.96875 	0.5 	39.3976 	0.174723 	-2.94012e-20
-0.34375 	-0.96875 	0.5 	39.3951 	0.168854 	-3.28012e-20
-0.328125 	-0.96875 	0.5 	39.3925 	0.162704 	-3.30935e-20
-0.3125 	-0.96875 	0.5 	39.39 	0.156211 	1.52516e-20
-0.296875 	-0.96875 	0.5 	39.3882 	0.150102 	-1.15995e-20
-0.28125 	-0.96875 	0.5 	39.3863 	0.143647 	-5.27459e-21
-0.265625 	-0.96875 	0.5 	39.3853 	0.137704 	-1.11847e-20
-0.25 	-0.96875 	0.5 	39.3834 	0.13087 	-4.07122e-20
-0.234375 	-0.96875 	0.5 	39.3815 	0.12398 	-1.10123e-20
-0.21875 	-0.96875 	0.5 	39.3799 	0.116691 	-3.32469e-20
-0.203125 	-0.96875 	0.5 	39.379 	0.110434 	-3.39947e-20
-0.1875 	-0.96875 	0.5 	39.3785 	0.103878 	1.06552e-20
-0.171875 	-0.96875 	0.5 	39.3782 	0.0979442 	7.21516e-21
-0.15625 	-0.96875 	0.5 	39.3783 	0.0918015 	6.56184e-22
-0.140625 	-0.96875 	0.5 	39.3787 	0.0857056 	2.92679e-21
-0.125 	-0.96875 	0.5 	39.3787 	0.0791549 	3.97064e-21
-0.109375 	-0.96875 	0.5 	39.3786 	0.0724102 	-3.28364e-20
-0.09375 	-0.96875 	0.5 	39.3795 	0.0667581 	1.77815e-20
-0.078125 	-0.96875 	0.5 	39.3788 	0.0600811 	1.14997e-19
-0.0625 	-0.96875 	0.5 	39.3792 	0.0540742 	1.15405e-20
-0.046875 	-0.96875 	0.5 	39.3799 	0.0484013 	1.96483e-20
-0.03125 	-0.96875 	0.5 	39.3804 	0.0418307 	3.04388e-20
-0.015625 	-0.96875 	0.5 	39.3801 	0.0355179 	-4.41874e-20
0 	-0.96875 	0.5 	39.3839 	0.0287157 	-1.08953e-19
0.015625 	-0.96875 	0.5 	39.384 	0.0231447 	-1.73884e-20
0.03125 	-0.96875 	0.5 	39.3848 	0.0177633 	2.67198e-20
0.046875 	-0.96875 	0.5 	39.3866 	0.0124673 	7.23723e-21
0.0625 	-0.96875 	0.5 	39.3882 	0.00719611 	1.15127e-21
0.078125 	-0.96875 	0.5 	39.3902 	0.00173172 	-1.01251e-21
0.09375 	-0.96875 	0.5 	39.3927 	-0.00288314 	-3.59479e-21
0.109375 	-0.96875 	0.5 	39.3947 	-0.00928182 	-1.29743e-20
0.125 	-0.96875 	0.5 	39.3971 	-0.0142621 	-2.20428e-20
0.140625 	-0.96875 	0.5 	39.3997 	-0.018984 	-4.99584e-21
0.15625 	-0.96875 	0.5 	39.4018 	-0.0236826 	8.43628e-22
0.171875 	-0.96875 	0.5 	39.4029 	-0.0283817 	4.27517e-22
0.1875 	-0.96875 	0.5 	39.4041 	-0.0330803 	1.21487e-23
0.203125 	-0.96875 	0.5 	39.4066 	-0.037261 	-9.11138e-23
0.21875 	-0.96875 	0.5 	39.41 	-0.0423058 	-1.59649e-22
0.234375 	-0.96875 	0.5 	39.4126 	-0.0465399 	-5.10147e-21
0.25 	-0.96875 	0.5 	39.4148 	-0.050471 	-1.01e-20
0.265625 	-0.96875 	0.5 	39.4175 	-0.0541998 	-8.10014e-21
0.28125 	-0.96875 	0.5 	39.4198 	-0.0580873 	3.4386e-21
0.296875 	-0.96875 	0.5 	39.4227 	-0.0615007 	-3.60109e-21
0.3125 	-0.96875 	0.5 	39.4244 	-0.0649634 	1.214e-20
0.328125 	-0.96875 	0.5 	39.4267 	-0.0685438 	4.36603e-20
0.34375 	-0.96875 	0.5 	39.4302 	-0.0717249 	-4.48501e-21
0.359375 	-0.96875 	0.5 	39.4324 	-0.0749299 	-5.04726e-21
0.375 	-0.96875 	0.5 	39.4351 	-0.0781652 	-1.16619e-20
0.390625 	-0.96875 	0.5 	39.4375 	-0.0810834 	-3.62497e-20
0.40625 	-0.96875 	0.5 	39.4402 	-0.0844943 	-4.50695e-21
0.421875 	-0.96875 	0.5 	39.4426 	-0.0874325 	5.28137e-21
0.4375 	-0.96875 	0.5 	39.4449 	-0.0899096 	1.79566e-21
0.453125 	-0.96875 	0.5 	39.4471 	-0.0928878 	1.20263e-20
0.46875 	-0.96875 	0.5 	39.4492 	-0.0953733 	9.17271e-21
0.484375 	-0.96875 	0.5 	39.4514 	-0.0979116 	1.23608e-20
0.5 	-0.96875 	0.5 	39.4536 	-0.100471 	1.3607e-20
0.515625 	-0.96875 	0.5 	39.4558 	-0.102907 	3.483e-20
0.53125 	-0.96875 	0.5 	39.458 	-0.105292 	6.31207e-20
0.546875 	-0.96875 	0.5 	39.46 	-0.107349 	3.22409e-20
0.5625 	-0.96875 	0.5 	39.4619 	-0.109867 	1.60923e-20
0.578125 	-0.96875 	0.5 	39.4636 	-0.112084 	-7.88423e-20
0.59375 	-0.96875 	0.5 	39.4655 	-0.114215 	-2.91203e-20
0.609375 	-0.96875 	0.5 	39.4673 	-0.116436 	-7.9948e-21
0.625 	-0.96875 	0.5 	39.469 	-0.118682 	2.62542e-20
0.640625 	-0.96875 	0.5 	39.4706 	-0.120809 	2.35597e-20
0.65625 	-0.96875 	0.5 	39.4722 	-0.123098 	9.32779e-21
0.671875 	-0.96875 	0.5 	39.4738 	-0.125203 	7.08062e-22
0.6875 	-0.96875 	0.5 	39.4753 	-0.127329 	-5.89093e-21
0.703125 	-0.96875 	0.5 	39.4766 	-0.129868 	-8.38235e-21
0.71875 	-0.96875 	0.5 	39.4778 	-0.132508 	-7.28649e-21
0.734375 	-0.96875 	0.5 	39.479 	-0.134987 	-1.15516e-20
0.75 	-0.96875 	0.5 	39.48 	-0.137553 	5.82792e-21
0.765625 	-0.96875 	0.5 	39.4809 	-0.139988 	3.66686e-21
0.78125 	-0.96875 	0.5 	39.4819 	-0.142436 	3.23033e-21
0.796875 	-0.96875 	0.5 	39.4831 	-0.144845 	-1.64221e-21
0.8125 	-0.96875 	0.5 	39.4844 	-0.147298 	5.02184e-21
0.828125 	-0.96875 	0.5 	39.4857 	-0.149699 	6.81346e-21
0.84375 	-0.96875 	0.5 	39.487 	-0.152099 	8.60508e-21
0.859375 	-0.96875 	0.5 	39.4879 	-0.154766 	-1.16252e-20
0.875 	-0.96875 	0.5 	39.4891 	-0.157487 	-6.23767e-20
0.890625 	-0.96875 	0.5 	39.4904 	-0.160242 	-7.94314e-20
0.90625 	-0.96875 	0.5 	39.4914 	-0.163447 	-1.65683e-20
0.921875 	-0.96875 	0.5 	39.4929 	-0.166127 	-1.78448e-20
0.9375 	-0.96875 	0.5 	39.4944 	-0.168959 	-2.74665e-20
0.953125 	-0.96875 	0.5 	39.4958 	-0.172139 	-1.65566e-20
0.96875 	-0.96875 	0.5 	39.497 	-0.175786 	3.30652e-20
0.984375 	-0.96875 	0.5 	39.4981 	-0.178956 	1.11331e-20
1 	-0.96875 	0.5 	39.4988 	-0.182679 	6.10545e-20
1.01562 	-0.96875 	0.5 	39.501 	-0.185324 	7.65023e-21
1.03125 	-0.96875 	0.5 	39.5027 	-0.188574 	-1.02979e-20
1.04688 	-0.96875 	0.5 	39.5038 	-0.192189 	-4.3743e-21
1.0625 	-0.96875 	0.5 	39.5063 	-0.195081 	-4.89994e-20
1.07812 	-0.96875 	0.5 	39.5075 	-0.198305 	-2.71817e-20
1.09375 	-0.96875 	0.5 	39.5094 	-0.201521 	6.61101e-23
1.10938 	-0.96875 	0.5 	39.5118 	-0.205128 	-3.52509e-22
1.125 	-0.96875 	0.5 	39.5144 	-0.209593 	-1.67062e-21
1.14062 	-0.96875 	0.5 	39.5167 	-0.212888 	-2.5008e-20
1.15625 	-0.96875 	0.5 	39.5185 	-0.215929 	-5.34974e-20
1.17188 	-0.96875 	0.5 	39.5207 	-0.219639 	-4.8413e-20
1.1875 	-0.96875 	0.5 	39.5239 	-0.223802 	-4.25933e-21
1.20312 	-0.96875 	0.5 	39.5266 	-0.227425 	-1.64579e-21
1.21875 	-0.96875 	0.5 	39.529 	-0.231216 	-2.8594e-21
1.23438 	-0.96875 	0.5 	39.531 	-0.234293 	-1.67276e-20
1.25 	-0.96875 	0.5 	39.5342 	-0.238 	5.53051e-21
1.26562 	-0.96875 	0.5 	39.5364 	-0.240926 	4.66721e-20
1.28125 	-0.96875 	0.5 	39.5394 	-0.245119 	1.87291e-20
1.29688 	-0.96875 	0.5 	39.5429 	-0.248556 	6.61345e-21
1.3125 	-0.96875 	0.5 	39.5465 	-0.251809 	4.93113e-21
1.32812 	-0.96875 	0.5 	39.5502 	-0.254758 	3.06158e-21
1.34375 	-0.96875 	0.5 	39.5525 	-0.257063 	2.7466e-20
1.35938 	-0.96875 	0.5 	39.5561 	-0.260609 	-1.77997e-20
1.375 	-0.96875 	0.5 	39.5592 	-0.264139 	-3.86316e-20
1.39062 	-0.96875 	0.5 	39.5628 	-0.267131 	-3.12422e-20
1.40625 	-0.96875 	0.5 	39.5667 	-0.269862 	-9.16475e-21
1.42188 	-0.96875 	0.5 	39.5705 	-0.272877 	-1.04138e-20
1.4375 	-0.96875 	0.5 	39.5739 	-0.276154 	-6.15731e-21
1.45312 	-0.96875 	0.5 	39.5775 	-0.279403 	-2.06674e-21
1.46875 	-0.96875 	0.5 	39.581 	-0.282659 	8.57927e-22
1.48438 	-0.96875 	0.5 	39.5855 	-0.285026 	8.8129e-22
-0.5 	-0.953125 	0.5 	39.4208 	0.230157 	1.23589e-19
-0.484375 	-0.953125 	0.5 	39.4167 	0.225879 	-4.09996e-21
-0.46875 	-0.953125 	0.5 	39.4123 	0.219565 	-1.05246e-20
-0.453125 	-0.953125 	0.5 	39.408 	0.213944 	-9.03256e-21
-0.4375 	-0.953125 	0.5 	39.4037 	0.206938 	-1.69293e-20
-0.421875 	-0.953125 	0.5 	39.4006 	0.20122 	-8.6499e-21
-0.40625 	-0.953125 	0.5 	39.4004 	0.19464 	1.05964e-20
-0.390625 	-0.953125 	0.5 	39.3943 	0.187998 	4.40662e-21
-0.375 	-0.953125 	0.5 	39.3937 	0.185016 	2.21934e-20
-0.359375 	-0.953125 	0.5 	39.3901 	0.176425 	-2.57409e-20
-0.34375 	-0.953125 	0.5 	39.3872 	0.167975 	-4.63961e-20
-0.328125 	-0.953125 	0.5 	39.3851 	0.163279 	-3.33184e-20
-0.3125 	-0.953125 	0.5 	39.3829 	0.158285 	-2.2013e-20
-0.296875 	-0.953125 	0.5 	39.3814 	0.152061 	-2.12055e-20
-0.28125 	-0.953125 	0.5 	39.3799 	0.145847 	-2.19563e-20
-0.265625 	-0.953125 	0.5 	39.3783 	0.139634 	-2.43646e-20
-0.25 	-0.953125 	0.5 	39.3766 	0.132861 	-1.42257e-20
-0.234375 	-0.953125 	0.5 	39.3744 	0.125574 	-1.61488e-21
-0.21875 	-0.953125 	0.5 	39.373 	0.118004 	-3.68236e-20
-0.203125 	-0.953125 	0.5 	39.3718 	0.112299 	-8.30369e-20
-0.1875 	-0.953125 	0.5 	39.3713 	0.105511 	-4.00571e-20
-0.171875 	-0.953125 	0.5 	39.3706 	0.0987896 	-1.75184e-21
-0.15625 	-0.953125 	0.5 	39.3702 	0.0917982 	-8.92661e-22
-0.140625 	-0.953125 	0.5 	39.3698 	0.0848857 	-4.85808e-22
-0.125 	-0.953125 	0.5 	39.37 	0.0785894 	-2.62996e-21
-0.109375 	-0.953125 	0.5 	39.3701 	0.0719012 	-5.18113e-20
-0.09375 	-0.953125 	0.5 	39.3701 	0.0650488 	-9.79721e-20
-0.078125 	-0.953125 	0.5 	39.3713 	0.05976 	-3.38425e-20
-0.0625 	-0.953125 	0.5 	39.3723 	0.0540537 	9.84099e-21
-0.046875 	-0.953125 	0.5 	39.3724 	0.0477191 	-3.56159e-21
-0.03125 	-0.953125 	0.5 	39.3725 	0.0412467 	-1.3342e-20
-0.015625 	-0.953125 	0.5 	39.3726 	0.0348362 	-6.07716e-20
0 	-0.953125 	0.5 	39.3748 	0.0285561 	-5.92399e-20
0.015625 	-0.953125 	0.5 	39.376 	0.0226111 	-1.51642e-20
0.03125 	-0.953125 	0.5 	39.3779 	0.0160733 	1.19918e-20
0.046875 	-0.953125 	0.5 	39.3796 	0.0107055 	1.61481e-20
0.0625 	-0.953125 	0.5 	39.3816 	0.00533416 	2.97931e-21
0.078125 	-0.953125 	0.5 	39.3833 	-5.00028e-06 	-1.72708e-21
0.09375 	-0.953125 	0.5 	39.3855 	-0.00551038 	-5.35241e-21
0.109375 	-0.953125 	0.5 	39.3878 	-0.0110361 	-1.02875e-21
0.125 	-0.953125 	0.5 	39.39 	-0.0166467 	-3.04893e-20
0.140625 	-0.953125 	0.5 	39.3926 	-0.021405 	1.23191e-20
0.15625 	-0.953125 	0.5 	39.3946 	-0.0265252 	3.30035e-20
0.171875 	-0.953125 	0.5 	39.3964 	-0.0311542 	4.84455e-22
0.1875 	-0.953125 	0.5 	39.3987 	-0.0353075 	2.78209e-22
0.203125 	-0.953125 	0.5 	39.4017 	-0.0396397 	-2.59973e-22
0.21875 	-0.953125 	0.5 	39.4045 	-0.04491 	8.67089e-23
0.234375 	-0.953125 	0.5 	39.4068 	-0.0489832 	-4.04901e-21
0.25 	-0.953125 	0.5 	39.4097 	-0.053027 	-4.44207e-21
0.265625 	-0.953125 	0.5 	39.4119 	-0.0566675 	-4.6128e-20
0.28125 	-0.953125 	0.5 	39.4151 	-0.0605505 	-9.27124e-21
0.296875 	-0.953125 	0.5 	39.418 	-0.0643687 	1.84971e-20
0.3125 	-0.953125 	0.5 	39.4203 	-0.067932 	6.63339e-20
0.328125 	-0.953125 	0.5 	39.4224 	-0.0715121 	3.12561e-20
0.34375 	-0.953125 	0.5 	39.4256 	-0.0746762 	2.36852e-21
0.359375 	-0.953125 	0.5 	39.4285 	-0.0779415 	-1.77731e-21
0.375 	-0.953125 	0.5 	39.4311 	-0.0807707 	-2.64103e-20
0.390625 	-0.953125 	0.5 	39.4337 	-0.0837906 	-2.34776e-20
0.40625 	-0.953125 	0.5 	39.4366 	-0.0866483 	-8.14127e-21
0.421875 	-0.953125 	0.5 	39.4391 	-0.0895214 	1.95707e-21
0.4375 	-0.953125 	0.5 	39.441 	-0.09254 	4.93824e-21
0.453125 	-0.953125 	0.5 	39.443 	-0.0949965 	2.13294e-21
0.46875 	-0.953125 	0.5 	39.4455 	-0.0979073 	4.05142e-21
0.484375 	-0.953125 	0.5 	39.4476 	-0.100287 	3.44145e-21
0.5 	-0.953125 	0.5 	39.45 	-0.102505 	1.32358e-20
0.515625 	-0.953125 	0.5 	39.4522 	-0.105081 	6.03367e-20
0.53125 	-0.953125 	0.5 	39.4543 	-0.107339 	5.75095e-20
0.546875 	-0.953125 	0.5 	39.4565 	-0.109532 	2.37083e-20
0.5625 	-0.953125 	0.5 	39.4584 	-0.111677 	-3.26515e-21
0.578125 	-0.953125 	0.5 	39.4602 	-0.113816 	-1.83216e-20
0.59375 	-0.953125 	0.5 	39.4621 	-0.11598 	-2.8609e-20
0.609375 	-0.953125 	0.5 	39.4638 	-0.118122 	-4.99236e-21
0.625 	-0.953125 	0.5 	39.4656 	-0.12044 	-1.76981e-21
0.640625 	-0.953125 	0.5 	39.4672 	-0.122519 	1.30925e-20
0.65625 	-0.953125 	0.5 	39.4689 	-0.124487 	8.41528e-21
0.671875 	-0.953125 	0.5 	39.4703 	-0.126633 	3.40836e-20
0.6875 	-0.953125 	0.5 	39.4719 	-0.128837 	-2.24778e-20
0.703125 	-0.953125 	0.5 	39.4734 	-0.131028 	-6.4672e-21
0.71875 	-0.953125 	0.5 	39.4746 	-0.133657 	-5.89114e-21
0.734375 	-0.953125 	0.5 	39.4756 	-0.135823 	-2.85442e-20
0.75 	-0.953125 	0.5 	39.4767 	-0.138568 	1.20446e-20
0.765625 	-0.953125 	0.5 	39.4777 	-0.141009 	1.07107e-20
0.78125 	-0.953125 	0.5 	39.479 	-0.143178 	2.3598e-21
0.796875 	-0.953125 	0.5 	39.48 	-0.145808 	1.46802e-20
0.8125 	-0.953125 	0.5 	39.481 	-0.148276 	1.31486e-20
0.828125 	-0.953125 	0.5 	39.4827 	-0.150529 	2.94137e-20
0.84375 	-0.953125 	0.5 	39.4834 	-0.153219 	2.74857e-21
0.859375 	-0.953125 	0.5 	39.4847 	-0.156203 	6.74601e-20
0.875 	-0.953125 	0.5 	39.4855 	-0.158592 	-1.54849e-20
0.890625 	-0.953125 	0.5 	39.4867 	-0.161308 	-7.08762e-20
0.90625 	-0.953125 	0.5 	39.4876 	-0.164564 	-1.29621e-20
0.921875 	-0.953125 	0.5 	39.4889 	-0.167499 	-1.09068e-20
0.9375 	-0.953125 	0.5 	39.4904 	-0.170155 	-1.11723e-20
0.953125 	-0.953125 	0.5 	39.4915 	-0.173531 	-7.61027e-21
0.96875 	-0.953125 	0.5 	39.4927 	-0.176903 	2.1838e-20
0.984375 	-0.953125 	0.5 	39.4939 	-0.18016 	1.40067e-20
1 	-0.953125 	0.5 	39.4952 	-0.183427 	1.6282e-20
1.01562 	-0.953125 	0.5 	39.4972 	-0.186269 	-5.22846e-20
1.03125 	-0.953125 	0.5 	39.4986 	-0.190002 	-1.22308e-20
1.04688 	-0.953125 	0.5 	39.5006 	-0.193369 	5.26623e-20
1.0625 	-0.953125 	0.5 	39.5008 	-0.197216 	-9.19243e-21
1.07812 	-0.953125 	0.5 	39.5024 	-0.200319 	-9.39829e-21
1.09375 	-0.953125 	0.5 	39.5056 	-0.203344 	-6.8745e-23
1.10938 	-0.953125 	0.5 	39.5078 	-0.206888 	-4.99655e-22
1.125 	-0.953125 	0.5 	39.5105 	-0.211448 	-1.92252e-21
1.14062 	-0.953125 	0.5 	39.5122 	-0.215551 	2.21756e-21
1.15625 	-0.953125 	0.5 	39.5145 	-0.219277 	1.84033e-21
1.17188 	-0.953125 	0.5 	39.5169 	-0.222704 	-1.25335e-20
1.1875 	-0.953125 	0.5 	39.5195 	-0.22635 	-1.04851e-20
1.20312 	-0.953125 	0.5 	39.522 	-0.230112 	-6.95926e-21
1.21875 	-0.953125 	0.5 	39.5245 	-0.233845 	-3.46202e-21
1.23438 	-0.953125 	0.5 	39.5275 	-0.237439 	-4.64894e-21
1.25 	-0.953125 	0.5 	39.5298 	-0.240604 	3.12268e-20
1.26562 	-0.953125 	0.5 	39.5321 	-0.243643 	6.61959e-20
1.28125 	-0.953125 	0.5 	39.5352 	-0.248167 	2.02642e-20
1.29688 	-0.953125 	0.5 	39.5388 	-0.251891 	3.98697e-21
1.3125 	-0.953125 	0.5 	39.5423 	-0.254835 	8.88507e-22
1.32812 	-0.953125 	0.5 	39.5459 	-0.257561 	1.18882e-21
1.34375 	-0.953125 	0.5 	39.5492 	-0.260603 	-6.82017e-21
1.35938 	-0.953125 	0.5 	39.5527 	-0.26367 	-3.32678e-21
1.375 	-0.953125 	0.5 	39.5559 	-0.266875 	-4.73876e-21
1.39062 	-0.953125 	0.5 	39.559 	-0.270082 	-6.21205e-21
1.40625 	-0.953125 	0.5 	39.5628 	-0.273504 	-9.56278e-21
1.42188 	-0.953125 	0.5 	39.5671 	-0.27664 	-5.38612e-21
1.4375 	-0.953125 	0.5 	39.5711 	-0.279794 	-8.36981e-22
1.45312 	-0.953125 	0.5 	39.5738 	-0.283271 	4.72881e-22
1.46875 	-0.953125 	0.5 	39.5782 	-0.286109 	2.48068e-22
1.48438 	-0.953125 	0.5 	39.5824 	-0.288896 	-1.05093e-22
-0.5 	-0.9375 	0.5 	39.4137 	0.235939 	3.73831e-20
-0.484375 	-0.9375 	0.5 	39.4101 	0.229752 	-2.9447e-20
-0.46875 	-0.9375 	0.5 	39.4057 	0.223439 	-3.60698e-20
-0.453125 	-0.9375 	0.5 	39.4012 	0.217412 	-2.25152e-20
-0.4375 	-0.9375 	0.5 	39.3986 	0.211213 	-2.21323e-20
-0.421875 	-0.9375 	0.5 	39.394 	0.205475 	-9.69703e-21
-0.40625 	-0.9375 	0.5 	39.3928 	0.198971 	9.37091e-21
-0.390625 	-0.9375 	0.5 	39.3916 	0.191744 	1.17717e-20
-0.375 	-0.9375 	0.5 	39.3857 	0.186308 	1.30791e-20
-0.359375 	-0.9375 	0.5 	39.3825 	0.177877 	-2.44398e-20
-0.34375 	-0.9375 	0.5 	39.3803 	0.17265 	-1.61358e-20
-0.328125 	-0.9375 	0.5 	39.3771 	0.165922 	-1.19224e-20
-0.3125 	-0.9375 	0.5 	39.3756 	0.16038 	-1.36418e-20
-0.296875 	-0.9375 	0.5 	39.3728 	0.153493 	-6.23528e-20
-0.28125 	-0.9375 	0.5 	39.3715 	0.147853 	-1.13462e-19
-0.265625 	-0.9375 	0.5 	39.3696 	0.140603 	-2.79327e-20
-0.25 	-0.9375 	0.5 	39.369 	0.132834 	4.19407e-20
-0.234375 	-0.9375 	0.5 	39.3679 	0.12647 	-1.7529e-20
-0.21875 	-0.9375 	0.5 	39.3662 	0.119317 	-4.04004e-20
-0.203125 	-0.9375 	0.5 	39.3655 	0.112862 	-2.48534e-20
-0.1875 	-0.9375 	0.5 	39.3637 	0.106551 	-1.55281e-20
-0.171875 	-0.9375 	0.5 	39.3621 	0.0990986 	9.54269e-21
-0.15625 	-0.9375 	0.5 	39.3621 	0.0927965 	1.23989e-20
-0.140625 	-0.9375 	0.5 	39.3619 	0.0854025 	-5.0498e-21
-0.125 	-0.9375 	0.5 	39.3616 	0.0783319 	-1.05061e-20
-0.109375 	-0.9375 	0.5 	39.3618 	0.071847 	-3.86995e-20
-0.09375 	-0.9375 	0.5 	39.3625 	0.065614 	-3.14077e-21
-0.078125 	-0.9375 	0.5 	39.3626 	0.0585112 	3.64354e-21
-0.0625 	-0.9375 	0.5 	39.3637 	0.0525913 	-9.06966e-21
-0.046875 	-0.9375 	0.5 	39.3639 	0.0455536 	-6.1103e-20