-0.5 	-1 	0.5 	39.8126 	-0.133626 	1.65592e-21
-0.484375 	-1 	0.5 	39.815 	-0.139173 	5.41807e-21
-0.46875 	-1 	0.5 	39.817 	-0.143572 	7.29463e-22
-0.453125 	-1 	0.5 	39.8205 	-0.149666 	1.78384e-22
-0.4375 	-1 	0.5 	39.8237 	-0.155054 	3.18237e-22
-0.421875 	-1 	0.5 	39.8265 	-0.159481 	1.17587e-21
-0.40625 	-1 	0.5 	39.8293 	-0.163907 	2.03351e-21
-0.390625 	-1 	0.5 	39.8321 	-0.168333 	2.89114e-21
-0.375 	-1 	0.5 	39.835 	-0.172985 	4.50108e-21
-0.359375 	-1 	0.5 	39.8393 	-0.177415 	8.28387e-21
-0.34375 	-1 	0.5 	39.8436 	-0.179733 	4.21946e-20
-0.328125 	-1 	0.5 	39.8479 	-0.182886 	5.32927e-20
-0.3125 	-1 	0.5 	39.8521 	-0.186891 	4.11007e-20
-0.296875 	-1 	0.5 	39.8562 	-0.191862 	1.25641e-21
-0.28125 	-1 	0.5 	39.8609 	-0.195281 	1.60933e-22
-0.265625 	-1 	0.5 	39.8661 	-0.198793 	6.14478e-21
-0.25 	-1 	0.5 	39.8705 	-0.203081 	4.47585e-21
-0.234375 	-1 	0.5 	39.8752 	-0.204237 	-2.84106e-21
-0.21875 	-1 	0.5 	39.8812 	-0.208314 	8.31015e-21
-0.203125 	-1 	0.5 	39.8869 	-0.212277 	1.9383e-20
-0.1875 	-1 	0.5 	39.8931 	-0.215305 	3.73373e-20
-0.171875 	-1 	0.5 	39.8995 	-0.217147 	1.74661e-20
-0.15625 	-1 	0.5 	39.9058 	-0.219022 	-3.63089e-21
-0.140625 	-1 	0.5 	39.9117 	-0.220958 	1.46025e-21
-0.125 	-1 	0.5 	39.9177 	-0.22265 	1.80809e-20
-0.109375 	-1 	0.5 	39.9238 	-0.224343 	3.47016e-20
-0.09375 	-1 	0.5 	39.9299 	-0.226035 	5.13222e-20
-0.078125 	-1 	0.5 	39.9364 	-0.227468 	6.63365e-20
-0.0625 	-1 	0.5 	39.9435 	-0.228392 	6.62023e-20
-0.046875 	-1 	0.5 	39.9506 	-0.229286 	6.53758e-20
-0.03125 	-1 	0.5 	39.9575 	-0.229465 	4.76488e-20
-0.015625 	-1 	0.5 	39.964 	-0.22964 	1.74539e-20
0 	-1 	0.5 	39.9707 	-0.229086 	3.21887e-20
0.015625 	-1 	0.5 	39.9771 	-0.228822 	7.04486e-21
0.03125 	-1 	0.5 	39.9839 	-0.227928 	-3.9825e-20
0.046875 	-1 	0.5 	39.9914 	-0.226857 	-3.27541e-20
0.0625 	-1 	0.5 	39.9976 	-0.22594 	-7.74797e-20
0.078125 	-1 	0.5 	40.0041 	-0.223747 	6.36967e-20
0.09375 	-1 	0.5 	40.011 	-0.221765 	-1.03044e-21
0.109375 	-1 	0.5 	40.0179 	-0.219308 	-5.32785e-20
0.125 	-1 	0.5 	40.0249 	-0.217391 	4.44573e-21
0.140625 	-1 	0.5 	40.0314 	-0.214757 	2.99851e-20
0.15625 	-1 	0.5 	40.0374 	-0.211733 	7.53745e-20
0.171875 	-1 	0.5 	40.0435 	-0.210043 	1.77805e-20
0.1875 	-1 	0.5 	40.049 	-0.206125 	-1.13831e-19
0.203125 	-1 	0.5 	40.0556 	-0.202661 	9.88901e-22
0.21875 	-1 	0.5 	40.0605 	-0.198226 	-2.68518e-20
0.234375 	-1 	0.5 	40.0662 	-0.193387 	-4.30855e-19
0.25 	-1 	0.5 	40.0714 	-0.188792 	-3.30331e-19
0.265625 	-1 	0.5 	40.0765 	-0.184188 	-1.16091e-19
0.28125 	-1 	0.5 	40.0814 	-0.178578 	-4.1981e-21
0.296875 	-1 	0.5 	40.086 	-0.172539 	1.03811e-19
0.3125 	-1 	0.5 	40.0908 	-0.169189 	2.78558e-20
0.328125 	-1 	0.5 	40.0939 	-0.163981 	-9.94003e-20
0.34375 	-1 	0.5 	40.0988 	-0.158503 	4.81735e-20
0.359375 	-1 	0.5 	40.1022 	-0.153635 	9.29132e-20
0.375 	-1 	0.5 	40.1052 	-0.146422 	1.48173e-19
0.390625 	-1 	0.5 	40.1088 	-0.139971 	1.68628e-19
0.40625 	-1 	0.5 	40.1121 	-0.134727 	3.32838e-20
0.421875 	-1 	0.5 	40.1151 	-0.128626 	1.81406e-20
0.4375 	-1 	0.5 	40.1172 	-0.122062 	7.85069e-21
0.453125 	-1 	0.5 	40.119 	-0.115466 	2.46543e-21
0.46875 	-1 	0.5 	40.1203 	-0.10943 	-3.53204e-21
0.484375 	-1 	0.5 	40.1216 	-0.103699 	1.03464e-20
0.5 	-1 	0.5 	40.1224 	-0.0981235 	4.79623e-20
0.515625 	-1 	0.5 	40.1231 	-0.0918776 	1.36642e-20
0.53125 	-1 	0.5 	40.1237 	-0.0856064 	-1.18134e-20
0.546875 	-1 	0.5 	40.1245 	-0.0792882 	2.73858e-20
0.5625 	-1 	0.5 	40.125 	-0.0730703 	3.39209e-21
0.578125 	-1 	0.5 	40.1245 	-0.0672522 	4.25525e-20
0.59375 	-1 	0.5 	40.1242 	-0.0614415 	3.27746e-20
0.609375 	-1 	0.5 	40.1239 	-0.055576 	3.1208e-20
0.625 	-1 	0.5 	40.1229 	-0.0496402 	-1.03179e-19
0.640625 	-1 	0.5 	40.1218 	-0.0435544 	-1.57948e-19
0.65625 	-1 	0.5 	40.1201 	-0.0375731 	5.62782e-21
0.671875 	-1 	0.5 	40.118 	-0.0319229 	5.52306e-20
0.6875 	-1 	0.5 	40.1161 	-0.0259267 	-1.60306e-19
0.703125 	-1 	0.5 	40.1142 	-0.0213165 	5.5645e-20
0.71875 	-1 	0.5 	40.1122 	-0.0161332 	3.12403e-20
0.734375 	-1 	0.5 	40.1095 	-0.0113606 	8.76582e-20
0.75 	-1 	0.5 	40.1066 	-0.00728091 	1.65384e-20
0.765625 	-1 	0.5 	40.1037 	-0.00352352 	-5.47383e-20
0.78125 	-1 	0.5 	40.1005 	0.00110515 	-1.49655e-20
0.796875 	-1 	0.5 	40.0974 	0.0057972 	2.9648e-22
0.8125 	-1 	0.5 	40.0941 	0.00958766 	-5.19448e-22
0.828125 	-1 	0.5 	40.0913 	0.0134265 	-2.29597e-20
0.84375 	-1 	0.5 	40.0875 	0.0171606 	1.25054e-22
0.859375 	-1 	0.5 	40.0839 	0.020202 	7.94829e-21
0.875 	-1 	0.5 	40.0801 	0.0229174 	4.77635e-20
0.890625 	-1 	0.5 	40.076 	0.025661 	7.27006e-20
0.90625 	-1 	0.5 	40.0727 	0.0289272 	-4.46699e-20
0.921875 	-1 	0.5 	40.0691 	0.0315309 	-7.70799e-21
0.9375 	-1 	0.5 	40.0654 	0.0336077 	-1.0139e-20
0.953125 	-1 	0.5 	40.0614 	0.0354439 	-2.13087e-21
0.96875 	-1 	0.5 	40.0569 	0.0376724 	-3.20214e-20
0.984375 	-1 	0.5 	40.0531 	0.0392871 	-6.68371e-21
1 	-1 	0.5 	40.0489 	0.0408899 	-1.0366e-19
1.01562 	-1 	0.5 	40.045 	0.0427788 	2.77049e-20
1.03125 	-1 	0.5 	40.0409 	0.0438203 	-5.58576e-20
1.04688 	-1 	0.5 	40.0368 	0.0450187 	-2.6844e-20
1.0625 	-1 	0.5 	40.0329 	0.0458238 	8.82938e-21
1.07812 	-1 	0.5 	40.0292 	0.0457899 	2.83727e-20
1.09375 	-1 	0.5 	40.0255 	0.0457561 	4.79161e-20
1.10938 	-1 	0.5 	40.0219 	0.0463433 	1.71956e-20
1.125 	-1 	0.5 	40.0191 	0.0459777 	-7.25412e-20
1.14062 	-1 	0.5 	40.0153 	0.0456647 	1.00454e-20
1.15625 	-1 	0.5 	40.0117 	0.045383 	2.71611e-20
1.17188 	-1 	0.5 	40.0081 	0.0448304 	1.05873e-19
1.1875 	-1 	0.5 	40.0051 	0.0445579 	1.48035e-21
1.20312 	-1 	0.5 	40.0019 	0.0444558 	-7.14231e-20
1.21875 	-1 	0.5 	39.9987 	0.0433201 	2.38063e-20
1.23438 	-1 	0.5 	39.9955 	0.0423623 	4.06521e-20
1.25 	-1 	0.5 	39.9921 	0.0413189 	5.9917e-21
1.26562 	-1 	0.5 	39.9894 	0.0401127 	9.47503e-20
1.28125 	-1 	0.5 	39.9872 	0.0387028 	3.11176e-19
1.29688 	-1 	0.5 	39.9842 	0.0380198 	7.80265e-20
1.3125 	-1 	0.5 	39.9814 	0.0365236 	3.215e-21
1.32812 	-1 	0.5 	39.979 	0.0351413 	8.049e-21
1.34375 	-1 	0.5 	39.9765 	0.0337043 	-2.23195e-20
1.35938 	-1 	0.5 	39.9739 	0.0321007 	-4.26067e-20
1.375 	-1 	0.5 	39.9718 	0.0306933 	-1.72481e-20
1.39062 	-1 	0.5 	39.9699 	0.0288827 	3.87721e-21
1.40625 	-1 	0.5 	39.9681 	0.0270721 	2.50025e-20
1.42188 	-1 	0.5 	39.9662 	0.0251423 	-2.54145e-20
1.4375 	-1 	0.5 	39.9644 	0.0233259 	-8.97159e-20
1.45312 	-1 	0.5 	39.9628 	0.0218398 	-1.02334e-20
1.46875 	-1 	0.5 	39.9612 	0.019964 	3.4029e-22
1.48438 	-1 	0.5 	39.9598 	0.0171452 	3.03281e-21
-0.5 	-0.984375 	0.5 	39.8084 	-0.135785 	2.48273e-22
-0.484375 	-0.984375 	0.5 	39.8107 	-0.141066 	2.63079e-21
-0.46875 	-0.984375 	0.5 	39.8135 	-0.146308 	0
-0.453125 	-0.984375 	0.5 	39.8157 	-0.152431 	0
-0.4375 	-0.984375 	0.5 	39.818 	-0.157173 	1.48743e-22
-0.421875 	-0.984375 	0.5 	39.8205 	-0.162271 	5.71049e-22
-0.40625 	-0.984375 	0.5 	39.8232 	-0.166349 	2.67775e-22
-0.390625 	-0.984375 	0.5 	39.8262 	-0.171287 	2.82854e-21
-0.375 	-0.984375 	0.5 	39.8309 	-0.174533 	-2.06136e-20
-0.359375 	-0.984375 	0.5 	39.835 	-0.180156 	3.78898e-21
-0.34375 	-0.984375 	0.5 	39.8392 	-0.184727 	4.78703e-21
-0.328125 	-0.984375 	0.5 	39.8434 	-0.18857 	2.4577e-20
-0.3125 	-0.984375 	0.5 	39.8477 	-0.191498 	4.17981e-20
-0.296875 	-0.984375 	0.5 	39.8519 	-0.196413 	3.20825e-21
-0.28125 	-0.984375 	0.5 	39.856 	-0.199914 	-3.09158e-21
-0.265625 	-0.984375 	0.5 	39.8612 	-0.203244 	1.58902e-21
-0.25 	-0.984375 	0.5 	39.8666 	-0.206518 	9.81007e-21
-0.234375 	-0.984375 	0.5 	39.8715 	-0.209633 	1.01471e-20
-0.21875 	-0.984375 	0.5 	39.8777 	-0.21452 	1.18421e-20
-0.203125 	-0.984375 	0.5 	39.8842 	-0.220065 	3.92304e-21
-0.1875 	-0.984375 	0.5 	39.8899 	-0.221573 	2.29482e-20
-0.171875 	-0.984375 	0.5 	39.8962 	-0.223851 	6.96339e-20
-0.15625 	-0.984375 	0.5 	39.9026 	-0.225378 	-3.59033e-20
-0.140625 	-0.984375 	0.5 	39.9092 	-0.227627 	-4.25184e-20
-0.125 	-0.984375 	0.5 	39.915 	-0.229806 	6.56016e-20
-0.109375 	-0.984375 	0.5 	39.9209 	-0.231669 	1.03398e-19
-0.09375 	-0.984375 	0.5 	39.9276 	-0.232721 	3.78987e-20
-0.078125 	-0.984375 	0.5 	39.935 	-0.234669 	3.15743e-20
-0.0625 	-0.984375 	0.5 	39.9421 	-0.234743 	1.79463e-19
-0.046875 	-0.984375 	0.5 	39.9493 	-0.235403 	1.6273e-19
-0.03125 	-0.984375 	0.5 	39.9568 	-0.23689 	3.91377e-20
-0.015625 	-0.984375 	0.5 	39.9643 	-0.236682 	7.181e-20
0 	-0.984375 	0.5 	39.9705 	-0.236265 	2.05593e-20
0.015625 	-0.984375 	0.5 	39.9768 	-0.235956 	-6.67198e-21
0.03125 	-0.984375 	0.5 	39.9837 	-0.235367 	-4.16195e-20
0.046875 	-0.984375 	0.5 	39.991 	-0.233839 	-5.83113e-20
0.0625 	-0.984375 	0.5 	39.9987 	-0.232581 	-5.92067e-20
0.078125 	-0.984375 	0.5 	40.006 	-0.230143 	-9.24106e-20
0.09375 	-0.984375 	0.5 	40.0128 	-0.227291 	-1.62697e-19
0.109375 	-0.984375 	0.5 	40.0208 	-0.227302 	3.31311e-20
0.125 	-0.984375 	0.5 	40.0271 	-0.223692 	9.2336e-20
0.140625 	-0.984375 	0.5 	40.0329 	-0.220881 	-7.78024e-20
0.15625 	-0.984375 	0.5 	40.0398 	-0.218545 	-2.91614e-21
0.171875 	-0.984375 	0.5 	40.0465 	-0.215476 	3.77784e-20
0.1875 	-0.984375 	0.5 	40.0525 	-0.211631 	-2.02747e-20
0.203125 	-0.984375 	0.5 	40.0585 	-0.207749 	-7.71469e-20
0.21875 	-0.984375 	0.5 	40.0645 	-0.203663 	-8.62568e-20
0.234375 	-0.984375 	0.5 	40.0699 	-0.199116 	-5.1365e-20
0.25 	-0.984375 	0.5 	40.0758 	-0.194816 	2.63878e-20
0.265625 	-0.984375 	0.5 	40.0812 	-0.189594 	-8.28541e-21
0.28125 	-0.984375 	0.5 	40.0872 	-0.185134 	-7.76825e-20
0.296875 	-0.984375 	0.5 	40.0921 	-0.179583 	-5.1285e-20
0.3125 	-0.984375 	0.5 	40.0964 	-0.17433 	-5.47057e-20
0.328125 	-0.984375 	0.5 	40.0996 	-0.168048 	-9.57601e-20
0.34375 	-0.984375 	0.5 	40.1037 	-0.161703 	-4.80711e-20
0.359375 	-0.984375 	0.5 	40.1078 	-0.156381 	5.14916e-20
0.375 	-0.984375 	0.5 	40.1116 	-0.148707 	2.35959e-19
0.390625 	-0.984375 	0.5 	40.1147 	-0.143412 	6.89267e-20
0.40625 	-0.984375 	0.5 	40.1182 	-0.137 	-1.74194e-20
0.421875 	-0.984375 	0.5 	40.1212 	-0.130686 	1.84913e-20
0.4375 	-0.984375 	0.5 	40.1234 	-0.124279 	1.13047e-20
0.453125 	-0.984375 	0.5 	40.125 	-0.117694 	8.03579e-21
0.46875 	-0.984375 	0.5 	40.1266 	-0.111073 	5.55365e-21
0.484375 	-0.984375 	0.5 	40.1278 	-0.104409 	6.88436e-21
0.5 	-0.984375 	0.5 	40.1283 	-0.0986503 	3.4226e-22
0.515625 	-0.984375 	0.5 	40.1299 	-0.0922214 	-3.466e-21
0.53125 	-0.984375 	0.5 	40.1308 	-0.0853643 	-1.01913e-19
0.546875 	-0.984375 	0.5 	40.1306 	-0.0791298 	-4.81845e-20
0.5625 	-0.984375 	0.5 	40.1308 	-0.0729036 	-4.13674e-21
0.578125 	-0.984375 	0.5 	40.1306 	-0.0669205 	2.35543e-20
0.59375 	-0.984375 	0.5 	40.1305 	-0.0606598 	9.05467e-20
0.609375 	-0.984375 	0.5 	40.1296 	-0.054624 	9.49249e-20
0.625 	-0.984375 	0.5 	40.1284 	-0.0475908 	6.2476e-21
0.640625 	-0.984375 	0.5 	40.1273 	-0.0414769 	-3.79704e-20
0.65625 	-0.984375 	0.5 	40.1256 	-0.0361636 	5.12518e-20
0.671875 	-0.984375 	0.5 	40.1237 	-0.0297203 	-3.92133e-20
0.6875 	-0.984375 	0.5 	40.1214 	-0.0241104 	-5.79953e-20
0.703125 	-0.984375 	0.5 	40.1191 	-0.0186649 	-3.54465e-20
0.71875 	-0.984375 	0.5 	40.1167 	-0.0139334 	1.99803e-20
0.734375 	-0.984375 	0.5 	40.1139 	-0.00946579 	7.20764e-21
0.75 	-0.984375 	0.5 	40.1112 	-0.00481889 	1.2425e-20
0.765625 	-0.984375 	0.5 	40.1078 	-0.000116289 	8.93449e-21
0.78125 	-0.984375 	0.5 	40.1044 	0.00456398 	1.20518e-19
0.796875 	-0.984375 	0.5 	40.1013 	0.00912758 	-1.91418e-20
0.8125 	-0.984375 	0.5 	40.0979 	0.0130406 	-5.55662e-20
0.828125 	-0.984375 	0.5 	40.0946 	0.0169035 	-2.25374e-20
0.84375 	-0.984375 	0.5 	40.0907 	0.020318 	-6.42338e-21
0.859375 	-0.984375 	0.5 	40.0869 	0.023881 	1.47585e-20
0.875 	-0.984375 	0.5 	40.0828 	0.0273857 	9.61702e-21
0.890625 	-0.984375 	0.5 	40.079 	0.0304931 	3.55017e-21
0.90625 	-0.984375 	0.5 	40.0752 	0.0334258 	-1.37967e-21
0.921875 	-0.984375 	0.5 	40.0714 	0.0355593 	-1.06663e-21
0.9375 	-0.984375 	0.5 	40.0677 	0.0376603 	-2.5076e-21
0.953125 	-0.984375 	0.5 	40.0639 	0.0397684 	-5.19096e-21
0.96875 	-0.984375 	0.5 	40.0592 	0.0415297 	-1.061e-20
0.984375 	-0.984375 	0.5 	40.0546 	0.0432835 	-1.44654e-20
1 	-0.984375 	0.5 	40.0509 	0.0449454 	7.46406e-21
1.01562 	-0.984375 	0.5 	40.0462 	0.0465586 	8.15263e-20
1.03125 	-0.984375 	0.5 	40.0424 	0.0475898 	-1.16964e-21
1.04688 	-0.984375 	0.5 	40.0382 	0.04874 	3.1833e-21
1.0625 	-0.984375 	0.5 	40.0335 	0.0498189 	4.01381e-21
1.07812 	-0.984375 	0.5 	40.0302 	0.0496727 	-2.15818e-22
1.09375 	-0.984375 	0.5 	40.0263 	0.0496855 	1.39178e-21
1.10938 	-0.984375 	0.5 	40.0224 	0.0497133 	3.50173e-21
1.125 	-0.984375 	0.5 	40.0185 	0.0496109 	2.0095e-20
1.14062 	-0.984375 	0.5 	40.0149 	0.0493422 	3.73991e-20
1.15625 	-0.984375 	0.5 	40.0113 	0.0490838 	5.4854e-20
1.17188 	-0.984375 	0.5 	40.0075 	0.0487725 	1.23451e-19
1.1875 	-0.984375 	0.5 	40.0044 	0.048183 	7.44872e-20
1.20312 	-0.984375 	0.5 	40.0013 	0.0476262 	1.36852e-20
1.21875 	-0.984375 	0.5 	39.9976 	0.0464913 	2.084e-20
1.23438 	-0.984375 	0.5 	39.9937 	0.0451919 	5.94852e-20
1.25 	-0.984375 	0.5 	39.9908 	0.0443007 	-6.35774e-20
1.26562 	-0.984375 	0.5 	39.9879 	0.0430401 	-5.75292e-20
1.28125 	-0.984375 	0.5 	39.9853 	0.0419238 	1.47358e-19
1.29688 	-0.984375 	0.5 	39.9826 	0.0406529 	-2.05455e-20
1.3125 	-0.984375 	0.5 	39.98 	0.039025 	-5.80684e-20
1.32812 	-0.984375 	0.5 	39.9772 	0.0377531 	5.50309e-21
1.34375 	-0.984375 	0.5 	39.9746 	0.0363146 	-2.54846e-20
1.35938 	-0.984375 	0.5 	39.9723 	0.0343939 	-2.10753e-20
1.375 	-0.984375 	0.5 	39.9698 	0.0329539 	-3.54928e-21
1.39062 	-0.984375 	0.5 	39.9678 	0.0316495 	2.68598e-20
1.40625 	-0.984375 	0.5 	39.966 	0.0289106 	7.35733e-20
1.42188 	-0.984375 	0.5 	39.9645 	0.0269515 	6.28179e-20
1.4375 	-0.984375 	0.5 	39.9629 	0.0250032 	-2.38076e-20
1.45312 	-0.984375 	0.5 	39.9611 	0.0234261 	-6.07578e-21
1.46875 	-0.984375 	0.5 	39.9597 	0.0209636 	1.73553e-21
1.48438 	-0.984375 	0.5 	39.9581 	0.0194447 	6.24677e-20
-0.5 	-0.96875 	0.5 	39.8041 	-0.138003 	3.82909e-22
-0.484375 	-0.96875 	0.5 	39.8065 	-0.143024 	0
-0.46875 	-0.96875 	0.5 	39.8085 	-0.149103 	0
-0.453125 	-0.96875 	0.5 	39.8098 	-0.154671 	0
-0.4375 	-0.96875 	0.5 	39.8124 	-0.158887 	0
-0.421875 	-0.96875 	0.5 	39.815 	-0.164609 	8.98987e-22
-0.40625 	-0.96875 	0.5 	39.8175 	-0.169619 	1.25778e-21
-0.390625 	-0.96875 	0.5 	39.8216 	-0.173382 	-1.3868e-20
-0.375 	-0.96875 	0.5 	39.8266 	-0.177382 	-3.03812e-20
-0.359375 	-0.96875 	0.5 	39.8306 	-0.184396 	5.74708e-21
-0.34375 	-0.96875 	0.5 	39.8351 	-0.186131 	6.32734e-22
-0.328125 	-0.96875 	0.5 	39.8392 	-0.191757 	3.90463e-21
-0.3125 	-0.96875 	0.5 	39.8433 	-0.197383 	7.17653e-21
-0.296875 	-0.96875 	0.5 	39.8475 	-0.200965 	5.16008e-21
-0.28125 	-0.96875 	0.5 	39.8524 	-0.204327 	7.78041e-21
-0.265625 	-0.96875 	0.5 	39.8574 	-0.207956 	1.45106e-20
-0.25 	-0.96875 	0.5 	39.8622 	-0.212055 	2.46121e-20
-0.234375 	-0.96875 	0.5 	39.8678 	-0.215842 	2.06822e-20
-0.21875 	-0.96875 	0.5 	39.8743 	-0.219423 	-5.37982e-21
-0.203125 	-0.96875 	0.5 	39.8808 	-0.22485 	-1.62088e-20
-0.1875 	-0.96875 	0.5 	39.8867 	-0.227621 	-2.4952e-20
-0.171875 	-0.96875 	0.5 	39.893 	-0.229575 	-2.77814e-20
-0.15625 	-0.96875 	0.5 	39.8994 	-0.23224 	-1.61655e-19
-0.140625 	-0.96875 	0.5 	39.906 	-0.234476 	-1.6473e-19
-0.125 	-0.96875 	0.5 	39.9129 	-0.236182 	-2.66572e-20
-0.109375 	-0.96875 	0.5 	39.9188 	-0.238101 	2.75483e-20
-0.09375 	-0.96875 	0.5 	39.9259 	-0.239052 	-4.54842e-21
-0.078125 	-0.96875 	0.5 	39.9333 	-0.241447 	-6.8932e-21
-0.0625 	-0.96875 	0.5 	39.9408 	-0.244285 	-5.70339e-21
-0.046875 	-0.96875 	0.5 	39.9487 	-0.244859 	9.52913e-22
-0.03125 	-0.96875 	0.5 	39.957 	-0.245396 	1.06902e-20
-0.015625 	-0.96875 	0.5 	39.9639 	-0.244071 	5.04564e-20
0 	-0.96875 	0.5 	39.9713 	-0.244238 	1.0673e-19
0.015625 	-0.96875 	0.5 	39.9774 	-0.243745 	3.99378e-20
0.03125 	-0.96875 	0.5 	39.9842 	-0.243057 	-2.68703e-20
0.046875 	-0.96875 	0.5 	39.9929 	-0.241832 	-1.09724e-19
0.0625 	-0.96875 	0.5 	40.0001 	-0.24017 	-4.18579e-20
0.078125 	-0.96875 	0.5 	40.0085 	-0.238545 	1.15178e-20
0.09375 	-0.96875 	0.5 	40.016 	-0.235971 	-4.65608e-20
0.109375 	-0.96875 	0.5 	40.0227 	-0.233237 	1.55894e-19
0.125 	-0.96875 	0.5 	40.0291 	-0.230036 	1.59507e-19
0.140625 	-0.96875 	0.5 	40.0357 	-0.227796 	-1.57441e-21
0.15625 	-0.96875 	0.5 	40.0427 	-0.225394 	8.10112e-20
0.171875 	-0.96875 	0.5 	40.05 	-0.221403 	5.69451e-20
0.1875 	-0.96875 	0.5 	40.0559 	-0.216344 	1.57854e-19
0.203125 	-0.96875 	0.5 	40.0622 	-0.213333 	9.51708e-21
0.21875 	-0.96875 	0.5 	40.0688 	-0.209591 	-6.71612e-20
0.234375 	-0.96875 	0.5 	40.0745 	-0.204303 	-1.75305e-21
0.25 	-0.96875 	0.5 	40.0807 	-0.200315 	1.14047e-19
0.265625 	-0.96875 	0.5 	40.0857 	-0.194544 	1.24387e-20
0.28125 	-0.96875 	0.5 	40.0921 	-0.190451 	-6.61256e-20
0.296875 	-0.96875 	0.5 	40.0965 	-0.184394 	-2.24861e-20
0.3125 	-0.96875 	0.5 	40.1025 	-0.178686 	-2.79256e-20
0.328125 	-0.96875 	0.5 	40.1054 	-0.171215 	-4.8493e-20
0.34375 	-0.96875 	0.5 	40.1094 	-0.165185 	-1.8802e-20
0.359375 	-0.96875 	0.5 	40.1137 	-0.159491 	1.775e-20
0.375 	-0.96875 	0.5 	40.1173 	-0.152405 	-4.1809e-20
0.390625 	-0.96875 	0.5 	40.121 	-0.145378 	-1.08569e-19
0.40625 	-0.96875 	0.5 	40.1245 	-0.140583 	-2.02233e-20
0.421875 	-0.96875 	0.5 	40.1265 	-0.133551 	-5.42915e-20
0.4375 	-0.96875 	0.5 	40.1298 	-0.126493 	5.13128e-21
0.453125 	-0.96875 	0.5 	40.1315 	-0.119926 	1.46824e-21
0.46875 	-0.96875 	0.5 	40.1328 	-0.114085 	2.37723e-20
0.484375 	-0.96875 	0.5 	40.1336 	-0.105834 	-2.26499e-20
0.5 	-0.96875 	0.5 	40.1367 	-0.0984213 	1.26097e-20
0.515625 	-0.96875 	0.5 	40.1381 	-0.0921343 	1.14021e-20
0.53125 	-0.96875 	0.5 	40.138 	-0.0857171 	4.20537e-21
0.546875 	-0.96875 	0.5 	40.1375 	-0.0792343 	7.27975e-21
0.5625 	-0.96875 	0.5 	40.1373 	-0.0727087 	-1.81602e-20
0.578125 	-0.96875 	0.5 	40.1363 	-0.0655213 	-1.19657e-20
0.59375 	-0.96875 	0.5 	40.1362 	-0.0592366 	7.13024e-20
0.609375 	-0.96875 	0.5 	40.1353 	-0.0536273 	1.51775e-19
0.625 	-0.96875 	0.5 	40.1341 	-0.0464983 	6.0512e-20
0.640625 	-0.96875 	0.5 	40.1328 	-0.0396984 	4.74018e-21
0.65625 	-0.96875 	0.5 	40.1314 	-0.0332596 	1.61681e-20
0.671875 	-0.96875 	0.5 	40.1294 	-0.0278635 	-6.49377e-21
0.6875 	-0.96875 	0.5 	40.1271 	-0.0221003 	-5.81655e-20
0.703125 	-0.96875 	0.5 	40.1243 	-0.0165919 	3.83905e-20
0.71875 	-0.96875 	0.5 	40.1213 	-0.0108255 	9.41405e-22
0.734375 	-0.96875 	0.5 	40.1191 	-0.00636411 	2.53342e-21
0.75 	-0.96875 	0.5 	40.1156 	-0.00176889 	3.16745e-20
0.765625 	-0.96875 	0.5 	40.112 	0.00345677 	3.53279e-20
0.78125 	-0.96875 	0.5 	40.1087 	0.00782334 	5.62694e-21
0.796875 	-0.96875 	0.5 	40.1054 	0.0127127 	-1.18106e-20
0.8125 	-0.96875 	0.5 	40.1019 	0.0168053 	-7.45524e-20
0.828125 	-0.96875 	0.5 	40.0981 	0.0203864 	-7.90676e-21
0.84375 	-0.96875 	0.5 	40.0944 	0.0241402 	1.30442e-20
0.859375 	-0.96875 	0.5 	40.0904 	0.0282495 	1.97631e-20
0.875 	-0.96875 	0.5 	40.0864 	0.0310353 	6.78803e-21
0.890625 	-0.96875 	0.5 	40.0824 	0.0343275 	-4.64555e-22
0.90625 	-0.96875 	0.5 	40.0779 	0.0378539 	-3.54205e-21
0.921875 	-0.96875 	0.5 	40.0737 	0.0397391 	-4.69035e-21
0.9375 	-0.96875 	0.5 	40.0701 	0.0417173 	-1.04982e-20
0.953125 	-0.96875 	0.5 	40.0654 	0.0441861 	-1.3594e-21
0.96875 	-0.96875 	0.5 	40.0605 	0.046035 	4.68456e-20
0.984375 	-0.96875 	0.5 	40.0566 	0.0474835 	1.56306e-20
1 	-0.96875 	0.5 	40.052 	0.0490731 	3.39428e-20
1.01562 	-0.96875 	0.5 	40.048 	0.0500494 	2.65892e-20
1.03125 	-0.96875 	0.5 	40.0437 	0.0513181 	4.0092e-20
1.04688 	-0.96875 	0.5 	40.0395 	0.0524082 	6.79211e-20
1.0625 	-0.96875 	0.5 	40.0346 	0.0534613 	5.24451e-20
1.07812 	-0.96875 	0.5 	40.0307 	0.0536887 	6.29612e-21
1.09375 	-0.96875 	0.5 	40.0266 	0.0537404 	8.95323e-21
1.10938 	-0.96875 	0.5 	40.0221 	0.0538209 	2.77652e-21
1.125 	-0.96875 	0.5 	40.0182 	0.0534873 	-1.35928e-20
1.14062 	-0.96875 	0.5 	40.0145 	0.052838 	1.59419e-19
1.15625 	-0.96875 	0.5 	40.0107 	0.0530654 	1.15596e-19
1.17188 	-0.96875 	0.5 	40.0064 	0.052606 	6.64388e-20
1.1875 	-0.96875 	0.5 	40.0027 	0.0516564 	1.85997e-20
1.20312 	-0.96875 	0.5 	40 	0.0508193 	1.69869e-21
1.21875 	-0.96875 	0.5 	39.9963 	0.0497946 	-2.21417e-20
1.23438 	-0.96875 	0.5 	39.9925 	0.048549 	1.35808e-20
1.25 	-0.96875 	0.5 	39.9895 	0.0473264 	-1.1333e-19
1.26562 	-0.96875 	0.5 	39.9866 	0.046259 	-1.98869e-20
1.28125 	-0.96875 	0.5 	39.9835 	0.0452266 	5.34263e-20
1.29688 	-0.96875 	0.5 	39.9808 	0.0434913 	2.49959e-20
1.3125 	-0.96875 	0.5 	39.9781 	0.0418457 	-6.57995e-21
1.32812 	-0.96875 	0.5 	39.9754 	0.0403651 	2.81879e-21
1.34375 	-0.96875 	0.5 	39.973 	0.038629 	-3.4267e-21
1.35938 	-0.96875 	0.5 	39.9707 	0.036687 	4.56214e-22
1.375 	-0.96875 	0.5 	39.9679 	0.0342904 	-6.79466e-21
1.39062 	-0.96875 	0.5 	39.9659 	0.0330752 	2.52503e-20
1.40625 	-0.96875 	0.5 	39.964 	0.0308556 	1.39934e-19
1.42188 	-0.96875 	0.5 	39.9623 	0.0289559 	1.74227e-19
1.4375 	-0.96875 	0.5 	39.9609 	0.0268816 	7.6151e-20
1.45312 	-0.96875 	0.5 	39.9595 	0.0249052 	5.93349e-21
1.46875 	-0.96875 	0.5 	39.9579 	0.0232961 	5.96451e-20
1.48438 	-0.96875 	0.5 	39.9561 	0.0212815 	8.17806e-20
-0.5 	-0.953125 	0.5 	39.7991 	-0.140265 	1.62756e-21
-0.484375 	-0.953125 	0.5 	39.8008 	-0.147001 	0
-0.46875 	-0.953125 	0.5 	39.8026 	-0.151066 	0
-0.453125 	-0.953125 	0.5 	39.8039 	-0.156625 	0
-0.4375 	-0.953125 	0.5 	39.8066 	-0.160844 	0
-0.421875 	-0.953125 	0.5 	39.8092 	-0.166553 	8.90927e-22
-0.40625 	-0.953125 	0.5 	39.8119 	-0.172786 	2.78667e-21
-0.390625 	-0.953125 	0.5 	39.817 	-0.178043 	-1.60307e-21
-0.375 	-0.953125 	0.5 	39.822 	-0.181834 	-2.06562e-20
-0.359375 	-0.953125 	0.5 	39.8262 	-0.188635 	7.70519e-21
-0.34375 	-0.953125 	0.5 	39.8306 	-0.191507 	5.04166e-21
-0.328125 	-0.953125 	0.5 	39.8347 	-0.196571 	7.10149e-21
-0.3125 	-0.953125 	0.5 	39.8387 	-0.201643 	7.36898e-21
-0.296875 	-0.953125 	0.5 	39.8429 	-0.206124 	-4.49977e-21
-0.28125 	-0.953125 	0.5 	39.8483 	-0.210681 	1.51374e-20
-0.265625 	-0.953125 	0.5 	39.8529 	-0.214968 	3.31713e-20
-0.25 	-0.953125 	0.5 	39.8582 	-0.218606 	2.38457e-20
-0.234375 	-0.953125 	0.5 	39.8641 	-0.22255 	2.56719e-20
-0.21875 	-0.953125 	0.5 	39.8704 	-0.226812 	3.5667e-20
-0.203125 	-0.953125 	0.5 	39.8769 	-0.23016 	-2.69594e-21
-0.1875 	-0.953125 	0.5 	39.8834 	-0.233489 	-4.20328e-20
-0.171875 	-0.953125 	0.5 	39.89 	-0.235979 	-4.55531e-20
-0.15625 	-0.953125 	0.5 	39.8967 	-0.238265 	-4.19961e-20
-0.140625 	-0.953125 	0.5 	39.9033 	-0.240551 	-3.84392e-20
-0.125 	-0.953125 	0.5 	39.91 	-0.242837 	-3.48823e-20
-0.109375 	-0.953125 	0.5 	39.9169 	-0.244921 	-2.47642e-20
-0.09375 	-0.953125 	0.5 	39.9241 	-0.247381 	-8.11329e-20
-0.078125 	-0.953125 	0.5 	39.9314 	-0.249731 	-1.09994e-19
-0.0625 	-0.953125 	0.5 	39.9389 	-0.251545 	-2.86068e-20
-0.046875 	-0.953125 	0.5 	39.9474 	-0.252163 	-5.85437e-20
-0.03125 	-0.953125 	0.5 	39.956 	-0.25219 	3.91615e-22
-0.015625 	-0.953125 	0.5 	39.9635 	-0.251693 	2.10853e-20
0 	-0.953125 	0.5 	39.9706 	-0.251493 	6.0366e-20
0.015625 	-0.953125 	0.5 	39.9774 	-0.251194 	-4.14528e-21
0.03125 	-0.953125 	0.5 	39.9859 	-0.25091 	-6.68675e-21
0.046875 	-0.953125 	0.5 	39.9939 	-0.24933 	-6.2705e-20
0.0625 	-0.953125 	0.5 	40.0016 	-0.247846 	-6.22892e-21
0.078125 	-0.953125 	0.5 	40.01 	-0.246171 	3.8396e-20
0.09375 	-0.953125 	0.5 	40.0181 	-0.244259 	2.41103e-20
0.109375 	-0.953125 	0.5 	40.0251 	-0.242312 	1.76383e-20
0.125 	-0.953125 	0.5 	40.0316 	-0.239333 	1.95225e-20
0.140625 	-0.953125 	0.5 	40.0386 	-0.2348 	8.05195e-21
0.15625 	-0.953125 	0.5 	40.046 	-0.231323 	6.44341e-20
0.171875 	-0.953125 	0.5 	40.0536 	-0.227807 	2.23174e-20
0.1875 	-0.953125 	0.5 	40.0596 	-0.223403 	3.93913e-20
0.203125 	-0.953125 	0.5 	40.0662 	-0.219509 	-3.87235e-20
0.21875 	-0.953125 	0.5 	40.0733 	-0.216072 	-6.06181e-20
0.234375 	-0.953125 	0.5 	40.0789 	-0.210264 	-1.13067e-19
0.25 	-0.953125 	0.5 	40.0844 	-0.20426 	-2.72092e-20
0.265625 	-0.953125 	0.5 	40.0902 	-0.199494 	3.31628e-20
0.28125 	-0.953125 	0.5 	40.0956 	-0.194262 	-3.87355e-21
0.296875 	-0.953125 	0.5 	40.1021 	-0.189348 	1.17485e-21
0.3125 	-0.953125 	0.5 	40.1085 	-0.183543 	-3.9288e-21
0.328125 	-0.953125 	0.5 	40.1122 	-0.176727 	-7.50887e-21
0.34375 	-0.953125 	0.5 	40.1163 	-0.170103 	9.5505e-21
0.359375 	-0.953125 	0.5 	40.1204 	-0.163326 	-2.04403e-21
0.375 	-0.953125 	0.5 	40.1238 	-0.157187 	-6.69807e-21
0.390625 	-0.953125 	0.5 	40.1272 	-0.149924 	-4.43931e-20
0.40625 	-0.953125 	0.5 	40.1301 	-0.143673 	-6.51309e-20
0.421875 	-0.953125 	0.5 	40.1324 	-0.136274 	-7.48861e-20
0.4375 	-0.953125 	0.5 	40.1357 	-0.128548 	-7.98295e-22
0.453125 	-0.953125 	0.5 	40.1375 	-0.122309 	8.32315e-21
0.46875 	-0.953125 	0.5 	40.1393 	-0.115437 	8.86701e-21
0.484375 	-0.953125 	0.5 	40.1413 	-0.107847 	1.99713e-21
0.5 	-0.953125 	0.5 	40.1441 	-0.100155 	1.07109e-20
0.515625 	-0.953125 	0.5 	40.145 	-0.092554 	3.80364e-20
0.53125 	-0.953125 	0.5 	40.1447 	-0.0855266 	-4.61858e-23
0.546875 	-0.953125 	0.5 	40.1442 	-0.0790163 	-1.49315e-21
0.5625 	-0.953125 	0.5 	40.1439 	-0.0725062 	-3.69391e-20
0.578125 	-0.953125 	0.5 	40.1432 	-0.0657921 	-9.90974e-20
0.59375 	-0.953125 	0.5 	40.142 	-0.0581458 	-2.6626e-20
0.609375 	-0.953125 	0.5 	40.1409 	-0.0511467 	-3.95779e-20
0.625 	-0.953125 	0.5 	40.1398 	-0.0445205 	-7.88154e-20
0.640625 	-0.953125 	0.5 	40.1392 	-0.0380329 	-3.41127e-21
0.65625 	-0.953125 	0.5 	40.1375 	-0.0323693 	5.60495e-21
0.671875 	-0.953125 	0.5 	40.1351 	-0.0261442 	1.3799e-20
0.6875 	-0.953125 	0.5 	40.1322 	-0.020137 	4.74922e-20
0.703125 	-0.953125 	0.5 	40.1295 	-0.0140116 	1.02816e-20
0.71875 	-0.953125 	0.5 	40.1261 	-0.00877729 	-1.04925e-20
0.734375 	-0.953125 	0.5 	40.1232 	-0.00272273 	8.40592e-21
0.75 	-0.953125 	0.5 	40.1198 	0.00185469 	4.70642e-20
0.765625 	-0.953125 	0.5 	40.1163 	0.00698572 	8.15157e-20
0.78125 	-0.953125 	0.5 	40.1132 	0.0126041 	1.18718e-19
0.796875 	-0.953125 	0.5 	40.1097 	0.0170971 	7.04508e-20
0.8125 	-0.953125 	0.5 	40.106 	0.0206688 	-2.50133e-20
0.828125 	-0.953125 	0.5 	40.102 	0.0242178 	9.77571e-21
0.84375 	-0.953125 	0.5 	40.0983 	0.0283333 	4.89746e-20
0.859375 	-0.953125 	0.5 	40.0942 	0.0316085 	3.21432e-20
0.875 	-0.953125 	0.5 	40.0899 	0.0350158 	5.43645e-21
0.890625 	-0.953125 	0.5 	40.0857 	0.0384007 	-7.88404e-22
0.90625 	-0.953125 	0.5 	40.0806 	0.041559 	-9.39731e-21
0.921875 	-0.953125 	0.5 	40.0761 	0.0436581 	-1.75858e-20
0.9375 	-0.953125 	0.5 	40.0711 	0.0462972 	-2.37593e-20
0.953125 	-0.953125 	0.5 	40.0667 	0.0486191 	-1.03465e-21
0.96875 	-0.953125 	0.5 	40.0624 	0.0503299 	1.31068e-20
0.984375 	-0.953125 	0.5 	40.0576 	0.0526282 	7.04228e-20
1 	-0.953125 	0.5 	40.0531 	0.0537012 	1.70994e-20
1.01562 	-0.953125 	0.5 	40.0489 	0.0547778 	3.25971e-20
1.03125 	-0.953125 	0.5 	40.0443 	0.0560138 	2.104e-20
1.04688 	-0.953125 	0.5 	40.0395 	0.0565156 	6.96092e-21
1.0625 	-0.953125 	0.5 	40.0351 	0.0572844 	1.19055e-20
1.07812 	-0.953125 	0.5 	40.0307 	0.0577673 	1.26942e-20
1.09375 	-0.953125 	0.5 	40.0262 	0.0576726 	4.47558e-21
1.10938 	-0.953125 	0.5 	40.0217 	0.0582065 	3.57708e-21
1.125 	-0.953125 	0.5 	40.0181 	0.0574631 	-1.44336e-19
1.14062 	-0.953125 	0.5 	40.014 	0.0571392 	3.93362e-20
1.15625 	-0.953125 	0.5 	40.0102 	0.0570857 	5.95636e-20
1.17188 	-0.953125 	0.5 	40.0055 	0.0562195 	6.49946e-20
1.1875 	-0.953125 	0.5 	40.0012 	0.0548322 	1.85136e-21
1.20312 	-0.953125 	0.5 	39.9985 	0.0539973 	-2.04684e-20
1.21875 	-0.953125 	0.5 	39.9947 	0.0529684 	-4.97723e-20
1.23438 	-0.953125 	0.5 	39.9913 	0.0518792 	-2.85078e-20
1.25 	-0.953125 	0.5 	39.988 	0.0511128 	4.60426e-20
1.26562 	-0.953125 	0.5 	39.9848 	0.0503873 	1.33555e-19
1.28125 	-0.953125 	0.5 	39.9816 	0.0482898 	5.22777e-20
1.29688 	-0.953125 	0.5 	39.9785 	0.0467533 	-2.35779e-20
1.3125 	-0.953125 	0.5 	39.976 	0.0449863 	-1.15895e-20
1.32812 	-0.953125 	0.5 	39.9734 	0.0429313 	-1.49022e-21
1.34375 	-0.953125 	0.5 	39.971 	0.04059 	3.67878e-20
1.35938 	-0.953125 	0.5 	39.9687 	0.0385259 	1.07268e-20
1.375 	-0.953125 	0.5 	39.9663 	0.03646 	1.15374e-20
1.39062 	-0.953125 	0.5 	39.964 	0.034505 	2.41771e-20
1.40625 	-0.953125 	0.5 	39.9623 	0.0326203 	6.97713e-20
1.42188 	-0.953125 	0.5 	39.9606 	0.0305904 	-1.757e-20
1.4375 	-0.953125 	0.5 	39.9585 	0.0286195 	-6.91606e-20
1.45312 	-0.953125 	0.5 	39.9571 	0.02604 	-5.36096e-20
1.46875 	-0.953125 	0.5 	39.9555 	0.0238885 	-2.5832e-20
1.48438 	-0.953125 	0.5 	39.9538 	0.0222088 	3.02697e-20
-0.5 	-0.9375 	0.5 	39.7926 	-0.145841 	2.14648e-21
-0.484375 	-0.9375 	0.5 	39.794 	-0.153023 	0
-0.46875 	-0.9375 	0.5 	39.7964 	-0.154129 	0
-0.453125 	-0.9375 	0.5 	39.798 	-0.158529 	0
-0.4375 	-0.9375 	0.5 	39.8005 	-0.163204 	2.46559e-22
-0.421875 	-0.9375 	0.5 	39.8035 	-0.169473 	7.13873e-22
-0.40625 	-0.9375 	0.5 	39.8066 	-0.176207 	7.37599e-21
-0.390625 	-0.9375 	0.5 	39.8114 	-0.18092 	3.94108e-20
-0.375 	-0.9375 	0.5 	39.8169 	-0.187512 	1.67652e-20
-0.359375 	-0.9375 	0.5 	39.8219 	-0.192875 	9.66329e-21
-0.34375 	-0.9375 	0.5 	39.8258 	-0.197624 	8.87626e-21
-0.328125 	-0.9375 	0.5 	39.8295 	-0.202716 	5.0506e-21
-0.3125 	-0.9375 	0.5 	39.8332 	-0.207661 	1.28524e-21
-0.296875 	-0.9375 	0.5 	39.8372 	-0.210834 	-1.75361e-21
-0.28125 	-0.9375 	0.5 	39.8433 	-0.216366 	-4.21341e-20
-0.265625 	-0.9375 	0.5 	39.8493 	-0.22081 	-1.72155e-21
-0.25 	-0.9375 	0.5 	39.8544 	-0.225004 	1.65885e-20
-0.234375 	-0.9375 	0.5 	39.8605 	-0.228869 	1.016e-20
-0.21875 	-0.9375 	0.5 	39.8668 	-0.232055 	-3.98998e-20
-0.203125 	-0.9375 	0.5 	39.8727 	-0.23501 	-1.06258e-19
-0.1875 	-0.9375 	0.5 	39.8797 	-0.240209 	-3.6376e-20
-0.171875 	-0.9375 	0.5 	39.8872 	-0.243327 	-2.96696e-20
-0.15625 	-0.9375 	0.5 	39.8941 	-0.246427 	-7.30294e-20
-0.140625 	-0.9375 	0.5 	39.9009 	-0.249017 	-8.88192e-20
-0.125 	-0.9375 	0.5 	39.9073 	-0.250357 	-2.50197e-20
-0.109375 	-0.9375 	0.5 	39.9145 	-0.252242 	1.31952e-19
-0.09375 	-0.9375 	0.5 	39.922 	-0.254467 	1.90487e-20
-0.078125 	-0.9375 	0.5 	39.9294 	-0.25689 	-7.69099e-20
-0.0625 	-0.9375 	0.5 	39.9372 	-0.258684 	-7.10593e-20
-0.046875 	-0.9375 	0.5 	39.9457 	-0.259622 	-1.33855e-19
-0.03125 	-0.9375 	0.5 	39.9542 	-0.259629 	-1.01327e-19
-0.015625 	-0.9375 	0.5 	39.9627 	-0.258917 	4.87706e-21