-0.5 	-1 	0.5 	104.027
-0.484375 	-1 	0.5 	104.122
-0.46875 	-1 	0.5 	104.191
-0.453125 	-1 	0.5 	104.205
-0.4375 	-1 	0.5 	104.254
-0.421875 	-1 	0.5 	104.347
-0.40625 	-1 	0.5 	104.422
-0.390625 	-1 	0.5 	104.45
-0.375 	-1 	0.5 	104.46
-0.359375 	-1 	0.5 	104.51
-0.34375 	-1 	0.5 	104.576
-0.328125 	-1 	0.5 	104.572
-0.3125 	-1 	0.5 	104.603
-0.296875 	-1 	0.5 	104.605
-0.28125 	-1 	0.5 	104.594
-0.265625 	-1 	0.5 	104.606
-0.25 	-1 	0.5 	104.672
-0.234375 	-1 	0.5 	104.675
-0.21875 	-1 	0.5 	104.622
-0.203125 	-1 	0.5 	104.586
-0.1875 	-1 	0.5 	104.557
-0.171875 	-1 	0.5 	104.551
-0.15625 	-1 	0.5 	104.52
-0.140625 	-1 	0.5 	104.497
-0.125 	-1 	0.5 	104.472
-0.109375 	-1 	0.5 	104.421
-0.09375 	-1 	0.5 	104.379
-0.078125 	-1 	0.5 	104.338
-0.0625 	-1 	0.5 	104.289
-0.046875 	-1 	0.5 	104.213
-0.03125 	-1 	0.5 	104.162
-0.015625 	-1 	0.5 	104.098
0 	-1 	0.5 	104.081
0.015625 	-1 	0.5 	104.037
0.03125 	-1 	0.5 	103.994
0.046875 	-1 	0.5 	103.935
0.0625 	-1 	0.5 	103.867
0.078125 	-1 	0.5 	103.804
0.09375 	-1 	0.5 	103.758
0.109375 	-1 	0.5 	103.705
0.125 	-1 	0.5 	103.657
0.140625 	-1 	0.5 	103.607
0.15625 	-1 	0.5 	103.572
0.171875 	-1 	0.5 	103.531
0.1875 	-1 	0.5 	103.488
0.203125 	-1 	0.5 	103.447
0.21875 	-1 	0.5 	103.419
0.234375 	-1 	0.5 	103.395
0.25 	-1 	0.5 	103.376
0.265625 	-1 	0.5 	103.35
0.28125 	-1 	0.5 	103.33
0.296875 	-1 	0.5 	103.314
0.3125 	-1 	0.5 	103.314
0.328125 	-1 	0.5 	103.315
0.34375 	-1 	0.5 	103.314
0.359375 	-1 	0.5 	103.32
0.375 	-1 	0.5 	103.334
0.390625 	-1 	0.5 	103.356
0.40625 	-1 	0.5 	103.381
0.421875 	-1 	0.5 	103.416
0.4375 	-1 	0.5 	103.448
0.453125 	-1 	0.5 	103.486
0.46875 	-1 	0.5 	103.53
0.484375 	-1 	0.5 	103.581
0.5 	-1 	0.5 	103.636
0.515625 	-1 	0.5 	103.686
0.53125 	-1 	0.5 	103.756
0.546875 	-1 	0.5 	103.815
0.5625 	-1 	0.5 	103.866
0.578125 	-1 	0.5 	103.941
0.59375 	-1 	0.5 	104.014
0.609375 	-1 	0.5 	104.083
0.625 	-1 	0.5 	104.153
0.640625 	-1 	0.5 	104.227
0.65625 	-1 	0.5 	104.311
0.671875 	-1 	0.5 	104.404
0.6875 	-1 	0.5 	104.481
0.703125 	-1 	0.5 	104.532
0.71875 	-1 	0.5 	104.596
0.734375 	-1 	0.5 	104.64
0.75 	-1 	0.5 	104.737
0.765625 	-1 	0.5 	104.82
0.78125 	-1 	0.5 	104.915
0.796875 	-1 	0.5 	104.961
0.8125 	-1 	0.5 	105.027
0.828125 	-1 	0.5 	105.08
0.84375 	-1 	0.5 	105.117
0.859375 	-1 	0.5 	105.171
0.875 	-1 	0.5 	105.209
0.890625 	-1 	0.5 	105.27
0.90625 	-1 	0.5 	105.306
0.921875 	-1 	0.5 	105.346
0.9375 	-1 	0.5 	105.389
0.953125 	-1 	0.5 	105.431
0.96875 	-1 	0.5 	105.454
0.984375 	-1 	0.5 	105.448
1 	-1 	0.5 	105.442
1.01562 	-1 	0.5 	105.43
1.03125 	-1 	0.5 	105.426
1.04688 	-1 	0.5 	105.429
1.0625 	-1 	0.5 	105.423
1.07812 	-1 	0.5 	105.377
1.09375 	-1 	0.5 	105.357
1.10938 	-1 	0.5 	105.323
1.125 	-1 	0.5 	105.279
1.14062 	-1 	0.5 	105.224
1.15625 	-1 	0.5 	105.173
1.17188 	-1 	0.5 	105.113
1.1875 	-1 	0.5 	105.09
1.20312 	-1 	0.5 	105.029
1.21875 	-1 	0.5 	104.953
1.23438 	-1 	0.5 	104.88
1.25 	-1 	0.5 	104.777
1.26562 	-1 	0.5 	104.67
1.28125 	-1 	0.5 	104.566
1.29688 	-1 	0.5 	104.506
1.3125 	-1 	0.5 	104.472
1.32812 	-1 	0.5 	104.325
1.34375 	-1 	0.5 	104.238
1.35938 	-1 	0.5 	104.061
1.375 	-1 	0.5 	103.911
1.39062 	-1 	0.5 	103.765
1.40625 	-1 	0.5 	103.64
1.42188 	-1 	0.5 	103.504
1.4375 	-1 	0.5 	103.38
1.45312 	-1 	0.5 	103.261
1.46875 	-1 	0.5 	103.14
1.48438 	-1 	0.5 	102.996
-0.5 	-0.984375 	0.5 	104.168
-0.484375 	-0.984375 	0.5 	104.234
-0.46875 	-0.984375 	0.5 	104.294
-0.453125 	-0.984375 	0.5 	104.354
-0.4375 	-0.984375 	0.5 	104.428
-0.421875 	-0.984375 	0.5 	104.5
-0.40625 	-0.984375 	0.5 	104.58
-0.390625 	-0.984375 	0.5 	104.63
-0.375 	-0.984375 	0.5 	104.649
-0.359375 	-0.984375 	0.5 	104.675
-0.34375 	-0.984375 	0.5 	104.729
-0.328125 	-0.984375 	0.5 	104.73
-0.3125 	-0.984375 	0.5 	104.755
-0.296875 	-0.984375 	0.5 	104.757
-0.28125 	-0.984375 	0.5 	104.745
-0.265625 	-0.984375 	0.5 	104.76
-0.25 	-0.984375 	0.5 	104.827
-0.234375 	-0.984375 	0.5 	104.784
-0.21875 	-0.984375 	0.5 	104.786
-0.203125 	-0.984375 	0.5 	104.735
-0.1875 	-0.984375 	0.5 	104.692
-0.171875 	-0.984375 	0.5 	104.689
-0.15625 	-0.984375 	0.5 	104.67
-0.140625 	-0.984375 	0.5 	104.646
-0.125 	-0.984375 	0.5 	104.598
-0.109375 	-0.984375 	0.5 	104.544
-0.09375 	-0.984375 	0.5 	104.485
-0.078125 	-0.984375 	0.5 	104.476
-0.0625 	-0.984375 	0.5 	104.375
-0.046875 	-0.984375 	0.5 	104.306
-0.03125 	-0.984375 	0.5 	104.256
-0.015625 	-0.984375 	0.5 	104.213
0 	-0.984375 	0.5 	104.18
0.015625 	-0.984375 	0.5 	104.125
0.03125 	-0.984375 	0.5 	104.066
0.046875 	-0.984375 	0.5 	104.002
0.0625 	-0.984375 	0.5 	103.942
0.078125 	-0.984375 	0.5 	103.852
0.09375 	-0.984375 	0.5 	103.8
0.109375 	-0.984375 	0.5 	103.753
0.125 	-0.984375 	0.5 	103.706
0.140625 	-0.984375 	0.5 	103.655
0.15625 	-0.984375 	0.5 	103.603
0.171875 	-0.984375 	0.5 	103.568
0.1875 	-0.984375 	0.5 	103.519
0.203125 	-0.984375 	0.5 	103.465
0.21875 	-0.984375 	0.5 	103.441
0.234375 	-0.984375 	0.5 	103.404
0.25 	-0.984375 	0.5 	103.378
0.265625 	-0.984375 	0.5 	103.36
0.28125 	-0.984375 	0.5 	103.342
0.296875 	-0.984375 	0.5 	103.324
0.3125 	-0.984375 	0.5 	103.322
0.328125 	-0.984375 	0.5 	103.324
0.34375 	-0.984375 	0.5 	103.324
0.359375 	-0.984375 	0.5 	103.329
0.375 	-0.984375 	0.5 	103.346
0.390625 	-0.984375 	0.5 	103.364
0.40625 	-0.984375 	0.5 	103.392
0.421875 	-0.984375 	0.5 	103.427
0.4375 	-0.984375 	0.5 	103.461
0.453125 	-0.984375 	0.5 	103.499
0.46875 	-0.984375 	0.5 	103.547
0.484375 	-0.984375 	0.5 	103.605
0.5 	-0.984375 	0.5 	103.663
0.515625 	-0.984375 	0.5 	103.72
0.53125 	-0.984375 	0.5 	103.779
0.546875 	-0.984375 	0.5 	103.847
0.5625 	-0.984375 	0.5 	103.9
0.578125 	-0.984375 	0.5 	103.981
0.59375 	-0.984375 	0.5 	104.07
0.609375 	-0.984375 	0.5 	104.149
0.625 	-0.984375 	0.5 	104.219
0.640625 	-0.984375 	0.5 	104.29
0.65625 	-0.984375 	0.5 	104.38
0.671875 	-0.984375 	0.5 	104.507
0.6875 	-0.984375 	0.5 	104.543
0.703125 	-0.984375 	0.5 	104.634
0.71875 	-0.984375 	0.5 	104.681
0.734375 	-0.984375 	0.5 	104.771
0.75 	-0.984375 	0.5 	104.85
0.765625 	-0.984375 	0.5 	104.933
0.78125 	-0.984375 	0.5 	105.024
0.796875 	-0.984375 	0.5 	105.095
0.8125 	-0.984375 	0.5 	105.151
0.828125 	-0.984375 	0.5 	105.206
0.84375 	-0.984375 	0.5 	105.263
0.859375 	-0.984375 	0.5 	105.318
0.875 	-0.984375 	0.5 	105.368
0.890625 	-0.984375 	0.5 	105.428
0.90625 	-0.984375 	0.5 	105.462
0.921875 	-0.984375 	0.5 	105.499
0.9375 	-0.984375 	0.5 	105.551
0.953125 	-0.984375 	0.5 	105.587
0.96875 	-0.984375 	0.5 	105.611
0.984375 	-0.984375 	0.5 	105.651
1 	-0.984375 	0.5 	105.638
1.01562 	-0.984375 	0.5 	105.679
1.03125 	-0.984375 	0.5 	105.62
1.04688 	-0.984375 	0.5 	105.615
1.0625 	-0.984375 	0.5 	105.613
1.07812 	-0.984375 	0.5 	105.561
1.09375 	-0.984375 	0.5 	105.53
1.10938 	-0.984375 	0.5 	105.455
1.125 	-0.984375 	0.5 	105.404
1.14062 	-0.984375 	0.5 	105.389
1.15625 	-0.984375 	0.5 	105.345
1.17188 	-0.984375 	0.5 	105.275
1.1875 	-0.984375 	0.5 	105.263
1.20312 	-0.984375 	0.5 	105.205
1.21875 	-0.984375 	0.5 	105.127
1.23438 	-0.984375 	0.5 	105.049
1.25 	-0.984375 	0.5 	104.939
1.26562 	-0.984375 	0.5 	104.837
1.28125 	-0.984375 	0.5 	104.728
1.29688 	-0.984375 	0.5 	104.652
1.3125 	-0.984375 	0.5 	104.567
1.32812 	-0.984375 	0.5 	104.506
1.34375 	-0.984375 	0.5 	104.365
1.35938 	-0.984375 	0.5 	104.183
1.375 	-0.984375 	0.5 	104.043
1.39062 	-0.984375 	0.5 	103.935
1.40625 	-0.984375 	0.5 	103.794
1.42188 	-0.984375 	0.5 	103.643
1.4375 	-0.984375 	0.5 	103.523
1.45312 	-0.984375 	0.5 	103.397
1.46875 	-0.984375 	0.5 	103.243
1.48438 	-0.984375 	0.5 	103.099
-0.5 	-0.96875 	0.5 	104.294
-0.484375 	-0.96875 	0.5 	104.332
-0.46875 	-0.96875 	0.5 	104.403
-0.453125 	-0.96875 	0.5 	104.501
-0.4375 	-0.96875 	0.5 	104.588
-0.421875 	-0.96875 	0.5 	104.66
-0.40625 	-0.96875 	0.5 	104.738
-0.390625 	-0.96875 	0.5 	104.793
-0.375 	-0.96875 	0.5 	104.819
-0.359375 	-0.96875 	0.5 	104.844
-0.34375 	-0.96875 	0.5 	104.877
-0.328125 	-0.96875 	0.5 	104.91
-0.3125 	-0.96875 	0.5 	104.927
-0.296875 	-0.96875 	0.5 	104.9
-0.28125 	-0.96875 	0.5 	104.917
-0.265625 	-0.96875 	0.5 	104.933
-0.25 	-0.96875 	0.5 	104.946
-0.234375 	-0.96875 	0.5 	104.937
-0.21875 	-0.96875 	0.5 	104.916
-0.203125 	-0.96875 	0.5 	104.882
-0.1875 	-0.96875 	0.5 	104.855
-0.171875 	-0.96875 	0.5 	104.831
-0.15625 	-0.96875 	0.5 	104.806
-0.140625 	-0.96875 	0.5 	104.775
-0.125 	-0.96875 	0.5 	104.724
-0.109375 	-0.96875 	0.5 	104.671
-0.09375 	-0.96875 	0.5 	104.611
-0.078125 	-0.96875 	0.5 	104.565
-0.0625 	-0.96875 	0.5 	104.492
-0.046875 	-0.96875 	0.5 	104.446
-0.03125 	-0.96875 	0.5 	104.404
-0.015625 	-0.96875 	0.5 	104.326
0 	-0.96875 	0.5 	104.252
0.015625 	-0.96875 	0.5 	104.194
0.03125 	-0.96875 	0.5 	104.135
0.046875 	-0.96875 	0.5 	104.073
0.0625 	-0.96875 	0.5 	104.011
0.078125 	-0.96875 	0.5 	103.927
0.09375 	-0.96875 	0.5 	103.862
0.109375 	-0.96875 	0.5 	103.798
0.125 	-0.96875 	0.5 	103.744
0.140625 	-0.96875 	0.5 	103.682
0.15625 	-0.96875 	0.5 	103.631
0.171875 	-0.96875 	0.5 	103.583
0.1875 	-0.96875 	0.5 	103.537
0.203125 	-0.96875 	0.5 	103.496
0.21875 	-0.96875 	0.5 	103.46
0.234375 	-0.96875 	0.5 	103.423
0.25 	-0.96875 	0.5 	103.388
0.265625 	-0.96875 	0.5 	103.369
0.28125 	-0.96875 	0.5 	103.352
0.296875 	-0.96875 	0.5 	103.33
0.3125 	-0.96875 	0.5 	103.322
0.328125 	-0.96875 	0.5 	103.32
0.34375 	-0.96875 	0.5 	103.321
0.359375 	-0.96875 	0.5 	103.329
0.375 	-0.96875 	0.5 	103.347
0.390625 	-0.96875 	0.5 	103.362
0.40625 	-0.96875 	0.5 	103.395
0.421875 	-0.96875 	0.5 	103.429
0.4375 	-0.96875 	0.5 	103.467
0.453125 	-0.96875 	0.5 	103.507
0.46875 	-0.96875 	0.5 	103.564
0.484375 	-0.96875 	0.5 	103.617
0.5 	-0.96875 	0.5 	103.675
0.515625 	-0.96875 	0.5 	103.739
0.53125 	-0.96875 	0.5 	103.806
0.546875 	-0.96875 	0.5 	103.862
0.5625 	-0.96875 	0.5 	103.933
0.578125 	-0.96875 	0.5 	104.029
0.59375 	-0.96875 	0.5 	104.109
0.609375 	-0.96875 	0.5 	104.189
0.625 	-0.96875 	0.5 	104.288
0.640625 	-0.96875 	0.5 	104.377
0.65625 	-0.96875 	0.5 	104.451
0.671875 	-0.96875 	0.5 	104.538
0.6875 	-0.96875 	0.5 	104.65
0.703125 	-0.96875 	0.5 	104.736
0.71875 	-0.96875 	0.5 	104.802
0.734375 	-0.96875 	0.5 	104.851
0.75 	-0.96875 	0.5 	104.971
0.765625 	-0.96875 	0.5 	105.057
0.78125 	-0.96875 	0.5 	105.147
0.796875 	-0.96875 	0.5 	105.201
0.8125 	-0.96875 	0.5 	105.272
0.828125 	-0.96875 	0.5 	105.324
0.84375 	-0.96875 	0.5 	105.417
0.859375 	-0.96875 	0.5 	105.493
0.875 	-0.96875 	0.5 	105.544
0.890625 	-0.96875 	0.5 	105.588
0.90625 	-0.96875 	0.5 	105.643
0.921875 	-0.96875 	0.5 	105.678
0.9375 	-0.96875 	0.5 	105.713
0.953125 	-0.96875 	0.5 	105.725
0.96875 	-0.96875 	0.5 	105.736
0.984375 	-0.96875 	0.5 	105.834
1 	-0.96875 	0.5 	105.833
1.01562 	-0.96875 	0.5 	105.886
1.03125 	-0.96875 	0.5 	105.848
1.04688 	-0.96875 	0.5 	105.81
1.0625 	-0.96875 	0.5 	105.776
1.07812 	-0.96875 	0.5 	105.746
1.09375 	-0.96875 	0.5 	105.704
1.10938 	-0.96875 	0.5 	105.666
1.125 	-0.96875 	0.5 	105.59
1.14062 	-0.96875 	0.5 	105.606
1.15625 	-0.96875 	0.5 	105.555
1.17188 	-0.96875 	0.5 	105.482
1.1875 	-0.96875 	0.5 	105.436
1.20312 	-0.96875 	0.5 	105.376
1.21875 	-0.96875 	0.5 	105.299
1.23438 	-0.96875 	0.5 	105.218
1.25 	-0.96875 	0.5 	105.108
1.26562 	-0.96875 	0.5 	104.994
1.28125 	-0.96875 	0.5 	104.895
1.29688 	-0.96875 	0.5 	104.797
1.3125 	-0.96875 	0.5 	104.693
1.32812 	-0.96875 	0.5 	104.564
1.34375 	-0.96875 	0.5 	104.436
1.35938 	-0.96875 	0.5 	104.316
1.375 	-0.96875 	0.5 	104.199
1.39062 	-0.96875 	0.5 	104.083
1.40625 	-0.96875 	0.5 	103.947
1.42188 	-0.96875 	0.5 	103.816
1.4375 	-0.96875 	0.5 	103.665
1.45312 	-0.96875 	0.5 	103.514
1.46875 	-0.96875 	0.5 	103.352
1.48438 	-0.96875 	0.5 	103.204
-0.5 	-0.953125 	0.5 	104.423
-0.484375 	-0.953125 	0.5 	104.502
-0.46875 	-0.953125 	0.5 	104.562
-0.453125 	-0.953125 	0.5 	104.646
-0.4375 	-0.953125 	0.5 	104.725
-0.421875 	-0.953125 	0.5 	104.822
-0.40625 	-0.953125 	0.5 	104.896
-0.390625 	-0.953125 	0.5 	104.924
-0.375 	-0.953125 	0.5 	104.957
-0.359375 	-0.953125 	0.5 	105.003
-0.34375 	-0.953125 	0.5 	105.063
-0.328125 	-0.953125 	0.5 	105.074
-0.3125 	-0.953125 	0.5 	105.1
-0.296875 	-0.953125 	0.5 	105.095
-0.28125 	-0.953125 	0.5 	105.113
-0.265625 	-0.953125 	0.5 	105.126
-0.25 	-0.953125 	0.5 	105.095
-0.234375 	-0.953125 	0.5 	105.068
-0.21875 	-0.953125 	0.5 	105.046
-0.203125 	-0.953125 	0.5 	105.027
-0.1875 	-0.953125 	0.5 	104.985
-0.171875 	-0.953125 	0.5 	104.961
-0.15625 	-0.953125 	0.5 	104.95
-0.140625 	-0.953125 	0.5 	104.907
-0.125 	-0.953125 	0.5 	104.856
-0.109375 	-0.953125 	0.5 	104.804
-0.09375 	-0.953125 	0.5 	104.748
-0.078125 	-0.953125 	0.5 	104.673
-0.0625 	-0.953125 	0.5 	104.615
-0.046875 	-0.953125 	0.5 	104.543
-0.03125 	-0.953125 	0.5 	104.492
-0.015625 	-0.953125 	0.5 	104.437
0 	-0.953125 	0.5 	104.341
0.015625 	-0.953125 	0.5 	104.282
0.03125 	-0.953125 	0.5 	104.209
0.046875 	-0.953125 	0.5 	104.128
0.0625 	-0.953125 	0.5 	104.064
0.078125 	-0.953125 	0.5 	103.996
0.09375 	-0.953125 	0.5 	103.916
0.109375 	-0.953125 	0.5 	103.852
0.125 	-0.953125 	0.5 	103.778
0.140625 	-0.953125 	0.5 	103.709
0.15625 	-0.953125 	0.5 	103.66
0.171875 	-0.953125 	0.5 	103.611
0.1875 	-0.953125 	0.5 	103.564
0.203125 	-0.953125 	0.5 	103.502
0.21875 	-0.953125 	0.5 	103.462
0.234375 	-0.953125 	0.5 	103.427
0.25 	-0.953125 	0.5 	103.394
0.265625 	-0.953125 	0.5 	103.368
0.28125 	-0.953125 	0.5 	103.343
0.296875 	-0.953125 	0.5 	103.326
0.3125 	-0.953125 	0.5 	103.306
0.328125 	-0.953125 	0.5 	103.314
0.34375 	-0.953125 	0.5 	103.315
0.359375 	-0.953125 	0.5 	103.325
0.375 	-0.953125 	0.5 	103.337
0.390625 	-0.953125 	0.5 	103.355
0.40625 	-0.953125 	0.5 	103.388
0.421875 	-0.953125 	0.5 	103.427
0.4375 	-0.953125 	0.5 	103.468
0.453125 	-0.953125 	0.5 	103.512
0.46875 	-0.953125 	0.5 	103.569
0.484375 	-0.953125 	0.5 	103.63
0.5 	-0.953125 	0.5 	103.695
0.515625 	-0.953125 	0.5 	103.758
0.53125 	-0.953125 	0.5 	103.81
0.546875 	-0.953125 	0.5 	103.897
0.5625 	-0.953125 	0.5 	103.969
0.578125 	-0.953125 	0.5 	104.054
0.59375 	-0.953125 	0.5 	104.146
0.609375 	-0.953125 	0.5 	104.273
0.625 	-0.953125 	0.5 	104.345
0.640625 	-0.953125 	0.5 	104.444
0.65625 	-0.953125 	0.5 	104.526
0.671875 	-0.953125 	0.5 	104.614
0.6875 	-0.953125 	0.5 	104.696
0.703125 	-0.953125 	0.5 	104.814
0.71875 	-0.953125 	0.5 	104.904
0.734375 	-0.953125 	0.5 	104.99
0.75 	-0.953125 	0.5 	105.078
0.765625 	-0.953125 	0.5 	105.178
0.78125 	-0.953125 	0.5 	105.275
0.796875 	-0.953125 	0.5 	105.326
0.8125 	-0.953125 	0.5 	105.387
0.828125 	-0.953125 	0.5 	105.478
0.84375 	-0.953125 	0.5 	105.572
0.859375 	-0.953125 	0.5 	105.661
0.875 	-0.953125 	0.5 	105.704
0.890625 	-0.953125 	0.5 	105.759
0.90625 	-0.953125 	0.5 	105.817
0.921875 	-0.953125 	0.5 	105.851
0.9375 	-0.953125 	0.5 	105.901
0.953125 	-0.953125 	0.5 	105.919
0.96875 	-0.953125 	0.5 	105.956
0.984375 	-0.953125 	0.5 	105.993
1 	-0.953125 	0.5 	106.028
1.01562 	-0.953125 	0.5 	106.018
1.03125 	-0.953125 	0.5 	106.005
1.04688 	-0.953125 	0.5 	105.985
1.0625 	-0.953125 	0.5 	105.99
1.07812 	-0.953125 	0.5 	105.96
1.09375 	-0.953125 	0.5 	105.877
1.10938 	-0.953125 	0.5 	105.811
1.125 	-0.953125 	0.5 	105.85
1.14062 	-0.953125 	0.5 	105.809
1.15625 	-0.953125 	0.5 	105.749
1.17188 	-0.953125 	0.5 	105.685
1.1875 	-0.953125 	0.5 	105.619
1.20312 	-0.953125 	0.5 	105.547
1.21875 	-0.953125 	0.5 	105.468
1.23438 	-0.953125 	0.5 	105.387
1.25 	-0.953125 	0.5 	105.286
1.26562 	-0.953125 	0.5 	105.17
1.28125 	-0.953125 	0.5 	105.073
1.29688 	-0.953125 	0.5 	104.966
1.3125 	-0.953125 	0.5 	104.841
1.32812 	-0.953125 	0.5 	104.732
1.34375 	-0.953125 	0.5 	104.608
1.35938 	-0.953125 	0.5 	104.536
1.375 	-0.953125 	0.5 	104.442
1.39062 	-0.953125 	0.5 	104.263
1.40625 	-0.953125 	0.5 	104.098
1.42188 	-0.953125 	0.5 	103.939
1.4375 	-0.953125 	0.5 	103.782
1.45312 	-0.953125 	0.5 	103.635
1.46875 	-0.953125 	0.5 	103.469
1.48438 	-0.953125 	0.5 	103.314
-0.5 	-0.9375 	0.5 	104.601
-0.484375 	-0.9375 	0.5 	104.67
-0.46875 	-0.9375 	0.5 	104.719
-0.453125 	-0.9375 	0.5 	104.846
-0.4375 	-0.9375 	0.5 	104.928
-0.421875 	-0.9375 	0.5 	105.009
-0.40625 	-0.9375 	0.5 	105.044
-0.390625 	-0.9375 	0.5 	105.078
-0.375 	-0.9375 	0.5 	105.111
-0.359375 	-0.9375 	0.5 	105.167
-0.34375 	-0.9375 	0.5 	105.241
-0.328125 	-0.9375 	0.5 	105.251
-0.3125 	-0.9375 	0.5 	105.272
-0.296875 	-0.9375 	0.5 	105.315
-0.28125 	-0.9375 	0.5 	105.329
-0.265625 	-0.9375 	0.5 	105.306
-0.25 	-0.9375 	0.5 	105.281
-0.234375 	-0.9375 	0.5 	105.233
-0.21875 	-0.9375 	0.5 	105.218
-0.203125 	-0.9375 	0.5 	105.17
-0.1875 	-0.9375 	0.5 	105.144
-0.171875 	-0.9375 	0.5 	105.115
-0.15625 	-0.9375 	0.5 	105.108
-0.140625 	-0.9375 	0.5 	105.053
-0.125 	-0.9375 	0.5 	104.999
-0.109375 	-0.9375 	0.5 	104.946
-0.09375 	-0.9375 	0.5 	104.863
-0.078125 	-0.9375 	0.5 	104.788
-0.0625 	-0.9375 	0.5 	104.703
-0.046875 	-0.9375 	0.5 	104.66
-0.03125 	-0.9375 	0.5 	104.588
-0.015625 	-0.9375 	0.5 	104.514
0 	-0.9375 	0.5 	104.441
0.015625 	-0.9375 	0.5 	104.364
0.03125 	-0.9375 	0.5 	104.282
0.046875 	-0.9375 	0.5 	104.199
0.0625 	-0.9375 	0.5 	104.133
0.078125 	-0.9375 	0.5 	104.058
0.09375 	-0.9375 	0.5 	103.967
0.109375 	-0.9375 	0.5 	103.898
0.125 	-0.9375 	0.5 	103.825
0.140625 	-0.9375 	0.5 	103.747
0.15625 	-0.9375 	0.5 	103.688
0.171875 	-0.9375 	0.5 	103.639
0.1875 	-0.9375 	0.5 	103.58
0.203125 	-0.9375 	0.5 	103.509
0.21875 	-0.9375 	0.5 	103.463
0.234375 	-0.9375 	0.5 	103.432
0.25 	-0.9375 	0.5 	103.383
0.265625 	-0.9375 	0.5 	103.345
0.28125 	-0.9375 	0.5 	103.325
0.296875 	-0.9375 	0.5 	103.319
0.3125 	-0.9375 	0.5 	103.295
0.328125 	-0.9375 	0.5 	103.301
0.34375 	-0.9375 	0.5 	103.303
0.359375 	-0.9375 	0.5 	103.315
0.375 	-0.9375 	0.5 	103.327
0.390625 	-0.9375 	0.5 	103.351
0.40625 	-0.9375 	0.5 	103.383
0.421875 	-0.9375 	0.5 	103.415
0.4375 	-0.9375 	0.5 	103.466
0.453125 	-0.9375 	0.5 	103.512
0.46875 	-0.9375 	0.5 	103.573
0.484375 	-0.9375 	0.5 	103.634
0.5 	-0.9375 	0.5 	103.703
0.515625 	-0.9375 	0.5 	103.77
0.53125 	-0.9375 	0.5 	103.856
0.546875 	-0.9375 	0.5 	103.93
0.5625 	-0.9375 	0.5 	104.017
0.578125 	-0.9375 	0.5 	104.103
0.59375 	-0.9375 	0.5 	104.184
0.609375 	-0.9375 	0.5 	104.305
0.625 	-0.9375 	0.5 	104.403
0.640625 	-0.9375 	0.5 	104.497
0.65625 	-0.9375 	0.5 	104.601
0.671875 	-0.9375 	0.5 	104.706
0.6875 	-0.9375 	0.5 	104.787
0.703125 	-0.9375 	0.5 	104.899
0.71875 	-0.9375 	0.5 	105.001
0.734375 	-0.9375 	0.5 	105.085
0.75 	-0.9375 	0.5 	105.204
0.765625 	-0.9375 	0.5 	105.29
0.78125 	-0.9375 	0.5 	105.386
0.796875 	-0.9375 	0.5 	105.479
0.8125 	-0.9375 	0.5 	105.55
0.828125 	-0.9375 	0.5 	105.687
0.84375 	-0.9375 	0.5 	105.746
0.859375 	-0.9375 	0.5 	105.82
0.875 	-0.9375 	0.5 	105.878
0.890625 	-0.9375 	0.5 	105.933
0.90625 	-0.9375 	0.5 	105.987
0.921875 	-0.9375 	0.5 	106.039
0.9375 	-0.9375 	0.5 	106.089
0.953125 	-0.9375 	0.5 	106.116
0.96875 	-0.9375 	0.5 	106.156
0.984375 	-0.9375 	0.5 	106.216
1 	-0.9375 	0.5 	106.222
1.01562 	-0.9375 	0.5 	106.181
1.03125 	-0.9375 	0.5 	106.176
1.04688 	-0.9375 	0.5 	106.16
1.0625 	-0.9375 	0.5 	106.161
1.07812 	-0.9375 	0.5 	106.145
1.09375 	-0.9375 	0.5 	106.179
1.10938 	-0.9375 	0.5 	106.138
1.125 	-0.9375 	0.5 	106.079
1.14062 	-0.9375 	0.5 	106.018
1.15625 	-0.9375 	0.5 	105.964
1.17188 	-0.9375 	0.5 	105.908
1.1875 	-0.9375 	0.5 	105.807
1.20312 	-0.9375 	0.5 	105.715
1.21875 	-0.9375 	0.5 	105.632
1.23438 	-0.9375 	0.5 	105.552
1.25 	-0.9375 	0.5 	105.464
1.26562 	-0.9375 	0.5 	105.358
1.28125 	-0.9375 	0.5 	105.262
1.29688 	-0.9375 	0.5 	105.139
1.3125 	-0.9375 	0.5 	105.008
1.32812 	-0.9375 	0.5 	104.888
1.34375 	-0.9375 	0.5 	104.772
1.35938 	-0.9375 	0.5 	104.665
1.375 	-0.9375 	0.5 	104.537
1.39062 	-0.9375 	0.5 	104.434
1.40625 	-0.9375 	0.5 	104.248
1.42188 	-0.9375 	0.5 	104.085
1.4375 	-0.9375 	0.5 	103.917
1.45312 	-0.9375 	0.5 	103.756
1.46875 	-0.9375 	0.5 	103.599
1.48438 	-0.9375 	0.5 	103.437
-0.5 	-0.921875 	0.5 	104.814
-0.484375 	-0.921875 	0.5 	104.816
-0.46875 	-0.921875 	0.5 	104.887
-0.453125 	-0.921875 	0.5 	105.057
-0.4375 	-0.921875 	0.5 	105.129
-0.421875 	-0.921875 	0.5 	105.181
-0.40625 	-0.921875 	0.5 	105.222
-0.390625 	-0.921875 	0.5 	105.248
-0.375 	-0.921875 	0.5 	105.296
-0.359375 	-0.921875 	0.5 	105.331
-0.34375 	-0.921875 	0.5 	105.385
-0.328125 	-0.921875 	0.5 	105.41
-0.3125 	-0.921875 	0.5 	105.443
-0.296875 	-0.921875 	0.5 	105.474
-0.28125 	-0.921875 	0.5 	105.48
-0.265625 	-0.921875 	0.5 	105.51
-0.25 	-0.921875 	0.5 	105.477
-0.234375 	-0.921875 	0.5 	105.407
-0.21875 	-0.921875 	0.5 	105.367
-0.203125 	-0.921875 	0.5 	105.326
-0.1875 	-0.921875 	0.5 	105.319
-0.171875 	-0.921875 	0.5 	105.298
-0.15625 	-0.921875 	0.5 	105.257
-0.140625 	-0.921875 	0.5 	105.202
-0.125 	-0.921875 	0.5 	105.142
-0.109375 	-0.921875 	0.5 	105.074
-0.09375 	-0.921875 	0.5 	104.987
-0.078125 	-0.921875 	0.5 	104.915
-0.0625 	-0.921875 	0.5 	104.839
-0.046875 	-0.921875 	0.5 	104.792
-0.03125 	-0.921875 	0.5 	104.694
-0.015625 	-0.921875 	0.5 	104.622
0 	-0.921875 	0.5 	104.535
0.015625 	-0.921875 	0.5 	104.438
0.03125 	-0.921875 	0.5 	104.353
0.046875 	-0.921875 	0.5 	104.274
0.0625 	-0.921875 	0.5 	104.182
0.078125 	-0.921875 	0.5 	104.101
0.09375 	-0.921875 	0.5 	104.019
0.109375 	-0.921875 	0.5 	103.937
0.125 	-0.921875 	0.5 	103.862
0.140625 	-0.921875 	0.5 	103.786
0.15625 	-0.921875 	0.5 	103.708
0.171875 	-0.921875 	0.5 	103.647
0.1875 	-0.921875 	0.5 	103.584
0.203125 	-0.921875 	0.5 	103.518
0.21875 	-0.921875 	0.5 	103.47
0.234375 	-0.921875 	0.5 	103.415
0.25 	-0.921875 	0.5 	103.37
0.265625 	-0.921875 	0.5 	103.337
0.28125 	-0.921875 	0.5 	103.301
0.296875 	-0.921875 	0.5 	103.294
0.3125 	-0.921875 	0.5 	103.287
0.328125 	-0.921875 	0.5 	103.296
0.34375 	-0.921875 	0.5 	103.28
0.359375 	-0.921875 	0.5 	103.292
0.375 	-0.921875 	0.5 	103.31
0.390625 	-0.921875 	0.5 	103.326
0.40625 	-0.921875 	0.5 	103.368
0.421875 	-0.921875 	0.5 	103.4
0.4375 	-0.921875 	0.5 	103.45
0.453125 	-0.921875 	0.5 	103.504
0.46875 	-0.921875 	0.5 	103.57
0.484375 	-0.921875 	0.5 	103.636
0.5 	-0.921875 	0.5 	103.7
0.515625 	-0.921875 	0.5 	103.767
0.53125 	-0.921875 	0.5 	103.866
0.546875 	-0.921875 	0.5 	103.946
0.5625 	-0.921875 	0.5 	104.058
0.578125 	-0.921875 	0.5 	104.149
0.59375 	-0.921875 	0.5 	104.251
0.609375 	-0.921875 	0.5 	104.35
0.625 	-0.921875 	0.5 	104.46
0.640625 	-0.921875 	0.5 	104.57
0.65625 	-0.921875 	0.5 	104.671
0.671875 	-0.921875 	0.5 	104.782
0.6875 	-0.921875 	0.5 	104.914
0.703125 	-0.921875 	0.5 	105.005
0.71875 	-0.921875 	0.5 	105.101
0.734375 	-0.921875 	0.5 	105.202
0.75 	-0.921875 	0.5 	105.316
0.765625 	-0.921875 	0.5 	105.425
0.78125 	-0.921875 	0.5 	105.529
0.796875 	-0.921875 	0.5 	105.575
0.8125 	-0.921875 	0.5 	105.725
0.828125 	-0.921875 	0.5 	105.813
0.84375 	-0.921875 	0.5 	105.909
0.859375 	-0.921875 	0.5 	105.978
0.875 	-0.921875 	0.5 	106.033
0.890625 	-0.921875 	0.5 	106.105
0.90625 	-0.921875 	0.5 	106.18
0.921875 	-0.921875 	0.5 	106.23
0.9375 	-0.921875 	0.5 	106.274
0.953125 	-0.921875 	0.5 	106.343
0.96875 	-0.921875 	0.5 	106.417
0.984375 	-0.921875 	0.5 	106.393
1 	-0.921875 	0.5 	106.406
1.01562 	-0.921875 	0.5 	106.434
1.03125 	-0.921875 	0.5 	106.296
1.04688 	-0.921875 	0.5 	106.308
1.0625 	-0.921875 	0.5 	106.309
1.07812 	-0.921875 	0.5 	106.389
1.09375 	-0.921875 	0.5 	106.4
1.10938 	-0.921875 	0.5 	106.371
1.125 	-0.921875 	0.5 	106.315
1.14062 	-0.921875 	0.5 	106.231
1.15625 	-0.921875 	0.5 	106.187
1.17188 	-0.921875 	0.5 	106.112
1.1875 	-0.921875 	0.5 	105.979
1.20312 	-0.921875 	0.5 	105.927
1.21875 	-0.921875 	0.5 	105.805
1.23438 	-0.921875 	0.5 	105.723
1.25 	-0.921875 	0.5 	105.647
1.26562 	-0.921875 	0.5 	105.533
1.28125 	-0.921875 	0.5 	105.433
1.29688 	-0.921875 	0.5 	105.313
1.3125 	-0.921875 	0.5 	105.182
1.32812 	-0.921875 	0.5 	105.062
1.34375 	-0.921875 	0.5 	104.952
1.35938 	-0.921875 	0.5 	104.804
1.375 	-0.921875 	0.5 	104.681
1.39062 	-0.921875 	0.5 	104.574
1.40625 	-0.921875 	0.5 	104.398
1.42188 	-0.921875 	0.5 	104.234
1.4375 	-0.921875 	0.5 	104.062
1.45312 	-0.921875 	0.5 	103.886
1.46875 	-0.921875 	0.5 	103.709
1.48438 	-0.921875 	0.5 	103.547
-0.5 	-0.90625 	0.5 	104.978
-0.484375 	-0.90625 	0.5 	105.064
-0.46875 	-0.90625 	0.5 	105.1
-0.453125 	-0.90625 	0.5 	105.225
-0.4375 	-0.90625 	0.5 	105.287
-0.421875 	-0.90625 	0.5 	105.38
-0.40625 	-0.90625 	0.5 	105.409
-0.390625 	-0.90625 	0.5 	105.415
-0.375 	-0.90625 	0.5 	105.462
-0.359375 	-0.90625 	0.5 	105.512
-0.34375 	-0.90625 	0.5 	105.558
-0.328125 	-0.90625 	0.5 	105.575
-0.3125 	-0.90625 	0.5 	105.608
-0.296875 	-0.90625 	0.5 	105.636
-0.28125 	-0.90625 	0.5 	105.657
-0.265625 	-0.90625 	0.5 	105.628
-0.25 	-0.90625 	0.5 	105.591
-0.234375 	-0.90625 	0.5 	105.578
-0.21875 	-0.90625 	0.5 	105.59
-0.203125 	-0.90625 	0.5 	105.537
-0.1875 	-0.90625 	0.5 	105.484
-0.171875 	-0.90625 	0.5 	105.434
-0.15625 	-0.90625 	0.5 	105.374
-0.140625 	-0.90625 	0.5 	105.314
-0.125 	-0.90625 	0.5 	105.276
-0.109375 	-0.90625 	0.5 	105.201
-0.09375 	-0.90625 	0.5 	105.115
-0.078125 	-0.90625 	0.5 	105.041
-0.0625 	-0.90625 	0.5 	104.966
-0.046875 	-0.90625 	0.5 	104.892
-0.03125 	-0.90625 	0.5 	104.815
-0.015625 	-0.90625 	0.5 	104.721
0 	-0.90625 	0.5 	104.626
0.015625 	-0.90625 	0.5 	104.526
0.03125 	-0.90625 	0.5 	104.436
0.046875 	-0.90625 	0.5 	104.345
0.0625 	-0.90625 	0.5 	104.244
0.078125 	-0.90625 	0.5 	104.158
0.09375 	-0.90625 	0.5 	104.068
0.109375 	-0.90625 	0.5 	103.969
0.125 	-0.90625 	0.5 	103.886
0.140625 	-0.90625 	0.5 	103.815
0.15625 	-0.90625 	0.5 	103.715
0.171875 	-0.90625 	0.5 	103.635
0.1875 	-0.90625 	0.5 	103.58
0.203125 	-0.90625 	0.5 	103.52
0.21875 	-0.90625 	0.5 	103.455
0.234375 	-0.90625 	0.5 	103.404
0.25 	-0.90625 	0.5 	103.357
0.265625 	-0.90625 	0.5 	103.319
0.28125 	-0.90625 	0.5 	103.275
0.296875 	-0.90625 	0.5 	103.27
0.3125 	-0.90625 	0.5 	103.256
0.328125 	-0.90625 	0.5 	103.259
0.34375 	-0.90625 	0.5 	103.256
0.359375 	-0.90625 	0.5 	103.271
0.375 	-0.90625 	0.5 	103.286
0.390625 	-0.90625 	0.5 	103.301
0.40625 	-0.90625 	0.5 	103.341
0.421875 	-0.90625 	0.5 	103.382
0.4375 	-0.90625 	0.5 	103.436
0.453125 	-0.90625 	0.5 	103.49
0.46875 	-0.90625 	0.5 	103.557
0.484375 	-0.90625 	0.5 	103.631
0.5 	-0.90625 	0.5 	103.696
0.515625 	-0.90625 	0.5 	103.78
0.53125 	-0.90625 	0.5 	103.868
0.546875 	-0.90625 	0.5 	103.971
0.5625 	-0.90625 	0.5 	104.088
0.578125 	-0.90625 	0.5 	104.181
0.59375 	-0.90625 	0.5 	104.282
0.609375 	-0.90625 	0.5 	104.386
0.625 	-0.90625 	0.5 	104.508
0.640625 	-0.90625 	0.5 	104.625
0.65625 	-0.90625 	0.5 	104.749
0.671875 	-0.90625 	0.5 	104.882
0.6875 	-0.90625 	0.5 	104.996
0.703125 	-0.90625 	0.5 	105.101
0.71875 	-0.90625 	0.5 	105.189
0.734375 	-0.90625 	0.5 	105.311
0.75 	-0.90625 	0.5 	105.421
0.765625 	-0.90625 	0.5 	105.573
0.78125 	-0.90625 	0.5 	105.661
0.796875 	-0.90625 	0.5 	105.787
0.8125 	-0.90625 	0.5 	105.869
0.828125 	-0.90625 	0.5 	105.984
0.84375 	-0.90625 	0.5 	106.059
0.859375 	-0.90625 	0.5 	106.135
0.875 	-0.90625 	0.5 	106.212
0.890625 	-0.90625 	0.5 	106.29
0.90625 	-0.90625 	0.5 	106.362
0.921875 	-0.90625 	0.5 	106.411
0.9375 	-0.90625 	0.5 	106.462
0.953125 	-0.90625 	0.5 	106.517
0.96875 	-0.90625 	0.5 	106.555
0.984375 	-0.90625 	0.5 	106.606
1 	-0.90625 	0.5 	106.588
1.01562 	-0.90625 	0.5 	106.518
1.03125 	-0.90625 	0.5 	106.572
1.04688 	-0.90625 	0.5 	106.564
1.0625 	-0.90625 	0.5 	106.574
1.07812 	-0.90625 	0.5 	106.563
1.09375 	-0.90625 	0.5 	106.603
1.10938 	-0.90625 	0.5 	106.56
1.125 	-0.90625 	0.5 	106.566
1.14062 	-0.90625 	0.5 	106.478
1.15625 	-0.90625 	0.5 	106.393
1.17188 	-0.90625 	0.5 	106.291
1.1875 	-0.90625 	0.5 	106.158
1.20312 	-0.90625 	0.5 	106.13
1.21875 	-0.90625 	0.5 	106.017
1.23438 	-0.90625 	0.5 	105.945
1.25 	-0.90625 	0.5 	105.855
1.26562 	-0.90625 	0.5 	105.718
1.28125 	-0.90625 	0.5 	105.597
1.29688 	-0.90625 	0.5 	105.486
1.3125 	-0.90625 	0.5 	105.364
1.32812 	-0.90625 	0.5 	105.279
1.34375 	-0.90625 	0.5 	105.144
1.35938 	-0.90625 	0.5 	105
1.375 	-0.90625 	0.5 	104.864
1.39062 	-0.90625 	0.5 	104.706
1.40625 	-0.90625 	0.5 	104.548
1.42188 	-0.90625 	0.5 	104.368
1.4375 	-0.90625 	0.5 	104.188
1.45312 	-0.90625 	0.5 	104.017
1.46875 	-0.90625 	0.5 	103.85
1.48438 	-0.90625 	0.5 	103.695
-0.5 	-0.890625 	0.5 	105.153
-0.484375 	-0.890625 	0.5 	105.177
-0.46875 	-0.890625 	0.5 	105.287
-0.453125 	-0.890625 	0.5 	105.391
-0.4375 	-0.890625 	0.5 	105.453
-0.421875 	-0.890625 	0.5 	105.533
-0.40625 	-0.890625 	0.5 	105.593
-0.390625 	-0.890625 	0.5 	105.616
-0.375 	-0.890625 	0.5 	105.663
-0.359375 	-0.890625 	0.5 	105.702
-0.34375 	-0.890625 	0.5 	105.774
-0.328125 	-0.890625 	0.5 	105.836
-0.3125 	-0.890625 	0.5 	105.843
-0.296875 	-0.890625 	0.5 	105.816
-0.28125 	-0.890625 	0.5 	105.813
-0.265625 	-0.890625 	0.5 	105.766
-0.25 	-0.890625 	0.5 	105.72
-0.234375 	-0.890625 	0.5 	105.762
-0.21875 	-0.890625 	0.5 	105.842
-0.203125 	-0.890625 	0.5 	105.726
-0.1875 	-0.890625 	0.5 	105.707
-0.171875 	-0.890625 	0.5 	105.568
-0.15625 	-0.890625 	0.5 	105.514
-0.140625 	-0.890625 	0.5 	105.448
-0.125 	-0.890625 	0.5 	105.418
-0.109375 	-0.890625 	0.5 	105.329
-0.09375 	-0.890625 	0.5 	105.238
-0.078125 	-0.890625 	0.5 	105.178
-0.0625 	-0.890625 	0.5 	105.098
-0.046875 	-0.890625 	0.5 	105.011
-0.03125 	-0.890625 	0.5 	104.922
-0.015625 	-0.890625 	0.5 	104.814
0 	-0.890625 	0.5 	104.712
0.015625 	-0.890625 	0.5 	104.614
0.03125 	-0.890625 	0.5 	104.514
0.046875 	-0.890625 	0.5 	104.413
0.0625 	-0.890625 	0.5 	104.312
0.078125 	-0.890625 	0.5 	104.217
0.09375 	-0.890625 	0.5 	104.112
0.109375 	-0.890625 	0.5 	104.009
0.125 	-0.890625 	0.5 	103.926
0.140625 	-0.890625 	0.5 	103.821
0.15625 	-0.890625 	0.5 	103.724
0.171875 	-0.890625 	0.5 	103.652
0.1875 	-0.890625 	0.5 	103.593
0.203125 	-0.890625 	0.5 	103.506
0.21875 	-0.890625 	0.5 	103.441
0.234375 	-0.890625 	0.5 	103.388
0.25 	-0.890625 	0.5 	103.356
0.265625 	-0.890625 	0.5 	103.289
0.28125 	-0.890625 	0.5 	103.253
0.296875 	-0.890625 	0.5 	103.248
0.3125 	-0.890625 	0.5 	103.229
0.328125 	-0.890625 	0.5 	103.221