-0.5 	-1 	0.5 	0.532197
-0.484375 	-1 	0.5 	0.909146
-0.46875 	-1 	0.5 	1.18049
-0.453125 	-1 	0.5 	1.44643
-0.4375 	-1 	0.5 	1.75545
-0.421875 	-1 	0.5 	2.06582
-0.40625 	-1 	0.5 	2.36747
-0.390625 	-1 	0.5 	2.77104
-0.375 	-1 	0.5 	3.0774
-0.359375 	-1 	0.5 	3.35986
-0.34375 	-1 	0.5 	3.64461
-0.328125 	-1 	0.5 	4.03056
-0.3125 	-1 	0.5 	4.34212
-0.296875 	-1 	0.5 	4.57434
-0.28125 	-1 	0.5 	4.88425
-0.265625 	-1 	0.5 	5.07762
-0.25 	-1 	0.5 	5.39984
-0.234375 	-1 	0.5 	5.65085
-0.21875 	-1 	0.5 	5.94844
-0.203125 	-1 	0.5 	6.28782
-0.1875 	-1 	0.5 	6.5541
-0.171875 	-1 	0.5 	6.86885
-0.15625 	-1 	0.5 	7.16564
-0.140625 	-1 	0.5 	7.32685
-0.125 	-1 	0.5 	7.53222
-0.109375 	-1 	0.5 	7.74859
-0.09375 	-1 	0.5 	8.11459
-0.078125 	-1 	0.5 	8.37446
-0.0625 	-1 	0.5 	8.59579
-0.046875 	-1 	0.5 	8.78521
-0.03125 	-1 	0.5 	9.00582
-0.015625 	-1 	0.5 	9.24718
0 	-1 	0.5 	9.48854
0.015625 	-1 	0.5 	9.72003
0.03125 	-1 	0.5 	9.81437
0.046875 	-1 	0.5 	9.89327
0.0625 	-1 	0.5 	10.1768
0.078125 	-1 	0.5 	10.55
0.09375 	-1 	0.5 	10.8493
0.109375 	-1 	0.5 	10.922
0.125 	-1 	0.5 	11.0979
0.140625 	-1 	0.5 	11.1538
0.15625 	-1 	0.5 	11.2633
0.171875 	-1 	0.5 	11.5207
0.1875 	-1 	0.5 	11.6226
0.203125 	-1 	0.5 	11.7552
0.21875 	-1 	0.5 	11.8579
0.234375 	-1 	0.5 	12.0742
0.25 	-1 	0.5 	12.2277
0.265625 	-1 	0.5 	12.3502
0.28125 	-1 	0.5 	12.4446
0.296875 	-1 	0.5 	12.5627
0.3125 	-1 	0.5 	12.6458
0.328125 	-1 	0.5 	12.7468
0.34375 	-1 	0.5 	12.8449
0.359375 	-1 	0.5 	12.9297
0.375 	-1 	0.5 	13.0119
0.390625 	-1 	0.5 	13.09
0.40625 	-1 	0.5 	13.1402
0.421875 	-1 	0.5 	13.1783
0.4375 	-1 	0.5 	13.2114
0.453125 	-1 	0.5 	13.2268
0.46875 	-1 	0.5 	13.2487
0.484375 	-1 	0.5 	13.2706
0.5 	-1 	0.5 	13.291
0.515625 	-1 	0.5 	13.2533
0.53125 	-1 	0.5 	13.221
0.546875 	-1 	0.5 	13.1887
0.5625 	-1 	0.5 	13.1649
0.578125 	-1 	0.5 	13.1483
0.59375 	-1 	0.5 	13.1317
0.609375 	-1 	0.5 	13.1026
0.625 	-1 	0.5 	13.0724
0.640625 	-1 	0.5 	12.9596
0.65625 	-1 	0.5 	12.8089
0.671875 	-1 	0.5 	12.6876
0.6875 	-1 	0.5 	12.5886
0.703125 	-1 	0.5 	12.4811
0.71875 	-1 	0.5 	12.4262
0.734375 	-1 	0.5 	12.2454
0.75 	-1 	0.5 	12.1494
0.765625 	-1 	0.5 	12.003
0.78125 	-1 	0.5 	11.8261
0.796875 	-1 	0.5 	11.7075
0.8125 	-1 	0.5 	11.4966
0.828125 	-1 	0.5 	11.2225
0.84375 	-1 	0.5 	11.0051
0.859375 	-1 	0.5 	10.8154
0.875 	-1 	0.5 	10.6127
0.890625 	-1 	0.5 	10.3435
0.90625 	-1 	0.5 	10.1373
0.921875 	-1 	0.5 	9.84954
0.9375 	-1 	0.5 	9.61905
0.953125 	-1 	0.5 	9.34575
0.96875 	-1 	0.5 	9.11405
0.984375 	-1 	0.5 	8.80881
1 	-1 	0.5 	8.48543
1.01562 	-1 	0.5 	8.22603
1.03125 	-1 	0.5 	8.07736
1.04688 	-1 	0.5 	7.8028
1.0625 	-1 	0.5 	7.51618
1.07812 	-1 	0.5 	6.99184
1.09375 	-1 	0.5 	6.59574
1.10938 	-1 	0.5 	6.32255
1.125 	-1 	0.5 	6.06593
1.14062 	-1 	0.5 	5.73322
1.15625 	-1 	0.5 	5.42105
1.17188 	-1 	0.5 	5.05456
1.1875 	-1 	0.5 	4.68754
1.20312 	-1 	0.5 	4.31747
1.21875 	-1 	0.5 	3.87309
1.23438 	-1 	0.5 	3.53184
1.25 	-1 	0.5 	3.19454
1.26562 	-1 	0.5 	2.81187
1.28125 	-1 	0.5 	2.46281
1.29688 	-1 	0.5 	2.09531
1.3125 	-1 	0.5 	1.70979
1.32812 	-1 	0.5 	1.23628
1.34375 	-1 	0.5 	0.812204
1.35938 	-1 	0.5 	0.603783
1.375 	-1 	0.5 	0.228572
1.39062 	-1 	0.5 	-0.140563
1.40625 	-1 	0.5 	-0.499745
1.42188 	-1 	0.5 	-0.87266
1.4375 	-1 	0.5 	-1.25637
1.45312 	-1 	0.5 	-1.59764
1.46875 	-1 	0.5 	-1.99879
1.48438 	-1 	0.5 	-2.34482
-0.5 	-0.984375 	0.5 	0.691249
-0.484375 	-0.984375 	0.5 	1.03386
-0.46875 	-0.984375 	0.5 	1.30967
-0.453125 	-0.984375 	0.5 	1.58911
-0.4375 	-0.984375 	0.5 	1.92844
-0.421875 	-0.984375 	0.5 	2.23674
-0.40625 	-0.984375 	0.5 	2.54335
-0.390625 	-0.984375 	0.5 	2.95977
-0.375 	-0.984375 	0.5 	3.30676
-0.359375 	-0.984375 	0.5 	3.55638
-0.34375 	-0.984375 	0.5 	3.86674
-0.328125 	-0.984375 	0.5 	4.23173
-0.3125 	-0.984375 	0.5 	4.50226
-0.296875 	-0.984375 	0.5 	4.82911
-0.28125 	-0.984375 	0.5 	5.1418
-0.265625 	-0.984375 	0.5 	5.43223
-0.25 	-0.984375 	0.5 	5.67661
-0.234375 	-0.984375 	0.5 	5.86507
-0.21875 	-0.984375 	0.5 	6.12182
-0.203125 	-0.984375 	0.5 	6.50802
-0.1875 	-0.984375 	0.5 	6.81911
-0.171875 	-0.984375 	0.5 	7.14011
-0.15625 	-0.984375 	0.5 	7.34061
-0.140625 	-0.984375 	0.5 	7.61537
-0.125 	-0.984375 	0.5 	7.92849
-0.109375 	-0.984375 	0.5 	8.13831
-0.09375 	-0.984375 	0.5 	8.33965
-0.078125 	-0.984375 	0.5 	8.58382
-0.0625 	-0.984375 	0.5 	8.8557
-0.046875 	-0.984375 	0.5 	9.1104
-0.03125 	-0.984375 	0.5 	9.27912
-0.015625 	-0.984375 	0.5 	9.45726
0 	-0.984375 	0.5 	9.82007
0.015625 	-0.984375 	0.5 	10.0535
0.03125 	-0.984375 	0.5 	10.1028
0.046875 	-0.984375 	0.5 	10.3596
0.0625 	-0.984375 	0.5 	10.4827
0.078125 	-0.984375 	0.5 	10.8257
0.09375 	-0.984375 	0.5 	11.0607
0.109375 	-0.984375 	0.5 	11.3391
0.125 	-0.984375 	0.5 	11.4521
0.140625 	-0.984375 	0.5 	11.5886
0.15625 	-0.984375 	0.5 	11.7851
0.171875 	-0.984375 	0.5 	11.8649
0.1875 	-0.984375 	0.5 	11.99
0.203125 	-0.984375 	0.5 	12.1312
0.21875 	-0.984375 	0.5 	12.2625
0.234375 	-0.984375 	0.5 	12.4566
0.25 	-0.984375 	0.5 	12.6138
0.265625 	-0.984375 	0.5 	12.7691
0.28125 	-0.984375 	0.5 	12.8892
0.296875 	-0.984375 	0.5 	12.9874
0.3125 	-0.984375 	0.5 	13.0722
0.328125 	-0.984375 	0.5 	13.1599
0.34375 	-0.984375 	0.5 	13.2475
0.359375 	-0.984375 	0.5 	13.3518
0.375 	-0.984375 	0.5 	13.4411
0.390625 	-0.984375 	0.5 	13.5195
0.40625 	-0.984375 	0.5 	13.5482
0.421875 	-0.984375 	0.5 	13.6013
0.4375 	-0.984375 	0.5 	13.6721
0.453125 	-0.984375 	0.5 	13.7131
0.46875 	-0.984375 	0.5 	13.7023
0.484375 	-0.984375 	0.5 	13.7226
0.5 	-0.984375 	0.5 	13.6988
0.515625 	-0.984375 	0.5 	13.7365
0.53125 	-0.984375 	0.5 	13.696
0.546875 	-0.984375 	0.5 	13.6161
0.5625 	-0.984375 	0.5 	13.6452
0.578125 	-0.984375 	0.5 	13.6574
0.59375 	-0.984375 	0.5 	13.6173
0.609375 	-0.984375 	0.5 	13.5607
0.625 	-0.984375 	0.5 	13.4863
0.640625 	-0.984375 	0.5 	13.428
0.65625 	-0.984375 	0.5 	13.3124
0.671875 	-0.984375 	0.5 	13.0819
0.6875 	-0.984375 	0.5 	13.0472
0.703125 	-0.984375 	0.5 	12.9425
0.71875 	-0.984375 	0.5 	12.9434
0.734375 	-0.984375 	0.5 	12.7094
0.75 	-0.984375 	0.5 	12.5603
0.765625 	-0.984375 	0.5 	12.4162
0.78125 	-0.984375 	0.5 	12.2316
0.796875 	-0.984375 	0.5 	12.0547
0.8125 	-0.984375 	0.5 	11.8804
0.828125 	-0.984375 	0.5 	11.6581
0.84375 	-0.984375 	0.5 	11.4591
0.859375 	-0.984375 	0.5 	11.2634
0.875 	-0.984375 	0.5 	11.0512
0.890625 	-0.984375 	0.5 	10.8216
0.90625 	-0.984375 	0.5 	10.5308
0.921875 	-0.984375 	0.5 	10.2341
0.9375 	-0.984375 	0.5 	9.97183
0.953125 	-0.984375 	0.5 	9.70251
0.96875 	-0.984375 	0.5 	9.46579
0.984375 	-0.984375 	0.5 	9.1217
1 	-0.984375 	0.5 	8.87496
1.01562 	-0.984375 	0.5 	8.58972
1.03125 	-0.984375 	0.5 	8.40037
1.04688 	-0.984375 	0.5 	8.14048
1.0625 	-0.984375 	0.5 	7.79534
1.07812 	-0.984375 	0.5 	7.40048
1.09375 	-0.984375 	0.5 	7.01633
1.10938 	-0.984375 	0.5 	6.6752
1.125 	-0.984375 	0.5 	6.35537
1.14062 	-0.984375 	0.5 	6.047
1.15625 	-0.984375 	0.5 	5.70408
1.17188 	-0.984375 	0.5 	5.3385
1.1875 	-0.984375 	0.5 	5.01473
1.20312 	-0.984375 	0.5 	4.63968
1.21875 	-0.984375 	0.5 	4.25933
1.23438 	-0.984375 	0.5 	3.78372
1.25 	-0.984375 	0.5 	3.37655
1.26562 	-0.984375 	0.5 	3.0217
1.28125 	-0.984375 	0.5 	2.62993
1.29688 	-0.984375 	0.5 	2.33093
1.3125 	-0.984375 	0.5 	1.84985
1.32812 	-0.984375 	0.5 	1.5002
1.34375 	-0.984375 	0.5 	0.975697
1.35938 	-0.984375 	0.5 	0.805028
1.375 	-0.984375 	0.5 	0.365817
1.39062 	-0.984375 	0.5 	-0.00997894
1.40625 	-0.984375 	0.5 	-0.377145
1.42188 	-0.984375 	0.5 	-0.767237
1.4375 	-0.984375 	0.5 	-1.17421
1.45312 	-0.984375 	0.5 	-1.58119
1.46875 	-0.984375 	0.5 	-1.93417
1.48438 	-0.984375 	0.5 	-2.26073
-0.5 	-0.96875 	0.5 	0.803058
-0.484375 	-0.96875 	0.5 	1.09384
-0.46875 	-0.96875 	0.5 	1.38462
-0.453125 	-0.96875 	0.5 	1.73583
-0.4375 	-0.96875 	0.5 	2.10416
-0.421875 	-0.96875 	0.5 	2.45578
-0.40625 	-0.96875 	0.5 	2.81694
-0.390625 	-0.96875 	0.5 	3.15199
-0.375 	-0.96875 	0.5 	3.47476
-0.359375 	-0.96875 	0.5 	3.79895
-0.34375 	-0.96875 	0.5 	4.11189
-0.328125 	-0.96875 	0.5 	4.40707
-0.3125 	-0.96875 	0.5 	4.73067
-0.296875 	-0.96875 	0.5 	5.03706
-0.28125 	-0.96875 	0.5 	5.36489
-0.265625 	-0.96875 	0.5 	5.67971
-0.25 	-0.96875 	0.5 	5.9377
-0.234375 	-0.96875 	0.5 	6.1583
-0.21875 	-0.96875 	0.5 	6.45748
-0.203125 	-0.96875 	0.5 	6.75666
-0.1875 	-0.96875 	0.5 	7.08671
-0.171875 	-0.96875 	0.5 	7.36792
-0.15625 	-0.96875 	0.5 	7.63722
-0.140625 	-0.96875 	0.5 	7.91607
-0.125 	-0.96875 	0.5 	8.23799
-0.109375 	-0.96875 	0.5 	8.44451
-0.09375 	-0.96875 	0.5 	8.71787
-0.078125 	-0.96875 	0.5 	8.89367
-0.0625 	-0.96875 	0.5 	9.19456
-0.046875 	-0.96875 	0.5 	9.45756
-0.03125 	-0.96875 	0.5 	9.65573
-0.015625 	-0.96875 	0.5 	9.85971
0 	-0.96875 	0.5 	10.1889
0.015625 	-0.96875 	0.5 	10.3813
0.03125 	-0.96875 	0.5 	10.5058
0.046875 	-0.96875 	0.5 	10.5837
0.0625 	-0.96875 	0.5 	10.906
0.078125 	-0.96875 	0.5 	11.1246
0.09375 	-0.96875 	0.5 	11.4706
0.109375 	-0.96875 	0.5 	11.6112
0.125 	-0.96875 	0.5 	11.8182
0.140625 	-0.96875 	0.5 	12.0251
0.15625 	-0.96875 	0.5 	12.1367
0.171875 	-0.96875 	0.5 	12.2362
0.1875 	-0.96875 	0.5 	12.3573
0.203125 	-0.96875 	0.5 	12.5091
0.21875 	-0.96875 	0.5 	12.6809
0.234375 	-0.96875 	0.5 	12.8772
0.25 	-0.96875 	0.5 	13.0744
0.265625 	-0.96875 	0.5 	13.226
0.28125 	-0.96875 	0.5 	13.3152
0.296875 	-0.96875 	0.5 	13.3775
0.3125 	-0.96875 	0.5 	13.4569
0.328125 	-0.96875 	0.5 	13.5949
0.34375 	-0.96875 	0.5 	13.6477
0.359375 	-0.96875 	0.5 	13.75
0.375 	-0.96875 	0.5 	13.8476
0.390625 	-0.96875 	0.5 	13.9537
0.40625 	-0.96875 	0.5 	13.9858
0.421875 	-0.96875 	0.5 	14.003
0.4375 	-0.96875 	0.5 	14.1142
0.453125 	-0.96875 	0.5 	14.1833
0.46875 	-0.96875 	0.5 	14.1616
0.484375 	-0.96875 	0.5 	14.1223
0.5 	-0.96875 	0.5 	14.1175
0.515625 	-0.96875 	0.5 	14.1725
0.53125 	-0.96875 	0.5 	14.1834
0.546875 	-0.96875 	0.5 	14.1329
0.5625 	-0.96875 	0.5 	14.0811
0.578125 	-0.96875 	0.5 	14.1125
0.59375 	-0.96875 	0.5 	14.0729
0.609375 	-0.96875 	0.5 	14.0505
0.625 	-0.96875 	0.5 	13.8996
0.640625 	-0.96875 	0.5 	13.8262
0.65625 	-0.96875 	0.5 	13.7624
0.671875 	-0.96875 	0.5 	13.5524
0.6875 	-0.96875 	0.5 	13.4735
0.703125 	-0.96875 	0.5 	13.4235
0.71875 	-0.96875 	0.5 	13.3668
0.734375 	-0.96875 	0.5 	13.1857
0.75 	-0.96875 	0.5 	13.0198
0.765625 	-0.96875 	0.5 	12.8735
0.78125 	-0.96875 	0.5 	12.6808
0.796875 	-0.96875 	0.5 	12.465
0.8125 	-0.96875 	0.5 	12.292
0.828125 	-0.96875 	0.5 	12.0939
0.84375 	-0.96875 	0.5 	11.888
0.859375 	-0.96875 	0.5 	11.6888
0.875 	-0.96875 	0.5 	11.4881
0.890625 	-0.96875 	0.5 	11.1973
0.90625 	-0.96875 	0.5 	10.9141
0.921875 	-0.96875 	0.5 	10.6306
0.9375 	-0.96875 	0.5 	10.3381
0.953125 	-0.96875 	0.5 	10.1032
0.96875 	-0.96875 	0.5 	9.81436
0.984375 	-0.96875 	0.5 	9.51391
1 	-0.96875 	0.5 	9.22537
1.01562 	-0.96875 	0.5 	8.95414
1.03125 	-0.96875 	0.5 	8.72049
1.04688 	-0.96875 	0.5 	8.46737
1.0625 	-0.96875 	0.5 	8.0695
1.07812 	-0.96875 	0.5 	7.67769
1.09375 	-0.96875 	0.5 	7.29457
1.10938 	-0.96875 	0.5 	6.97063
1.125 	-0.96875 	0.5 	6.68911
1.14062 	-0.96875 	0.5 	6.33517
1.15625 	-0.96875 	0.5 	5.98033
1.17188 	-0.96875 	0.5 	5.65429
1.1875 	-0.96875 	0.5 	5.32016
1.20312 	-0.96875 	0.5 	4.89988
1.21875 	-0.96875 	0.5 	4.32365
1.23438 	-0.96875 	0.5 	4.01198
1.25 	-0.96875 	0.5 	3.50234
1.26562 	-0.96875 	0.5 	3.27131
1.28125 	-0.96875 	0.5 	2.89866
1.29688 	-0.96875 	0.5 	2.5289
1.3125 	-0.96875 	0.5 	1.98991
1.32812 	-0.96875 	0.5 	1.65123
1.34375 	-0.96875 	0.5 	1.23962
1.35938 	-0.96875 	0.5 	0.942273
1.375 	-0.96875 	0.5 	0.547368
1.39062 	-0.96875 	0.5 	0.184839
1.40625 	-0.96875 	0.5 	-0.183606
1.42188 	-0.96875 	0.5 	-0.657447
1.4375 	-0.96875 	0.5 	-1.08371
1.45312 	-0.96875 	0.5 	-1.52559
1.46875 	-0.96875 	0.5 	-1.83543
1.48438 	-0.96875 	0.5 	-2.17602
-0.5 	-0.953125 	0.5 	0.906067
-0.484375 	-0.953125 	0.5 	1.30533
-0.46875 	-0.953125 	0.5 	1.58879
-0.453125 	-0.953125 	0.5 	1.91873
-0.4375 	-0.953125 	0.5 	2.28306
-0.421875 	-0.953125 	0.5 	2.63781
-0.40625 	-0.953125 	0.5 	2.998
-0.390625 	-0.953125 	0.5 	3.37337
-0.375 	-0.953125 	0.5 	3.66222
-0.359375 	-0.953125 	0.5 	3.95572
-0.34375 	-0.953125 	0.5 	4.26756
-0.328125 	-0.953125 	0.5 	4.61973
-0.3125 	-0.953125 	0.5 	4.96424
-0.296875 	-0.953125 	0.5 	5.32857
-0.28125 	-0.953125 	0.5 	5.639
-0.265625 	-0.953125 	0.5 	5.94958
-0.25 	-0.953125 	0.5 	6.26854
-0.234375 	-0.953125 	0.5 	6.41639
-0.21875 	-0.953125 	0.5 	6.73294
-0.203125 	-0.953125 	0.5 	7.10345
-0.1875 	-0.953125 	0.5 	7.38173
-0.171875 	-0.953125 	0.5 	7.63808
-0.15625 	-0.953125 	0.5 	7.80972
-0.140625 	-0.953125 	0.5 	8.17503
-0.125 	-0.953125 	0.5 	8.53729
-0.109375 	-0.953125 	0.5 	8.80618
-0.09375 	-0.953125 	0.5 	9.05956
-0.078125 	-0.953125 	0.5 	9.14483
-0.0625 	-0.953125 	0.5 	9.49976
-0.046875 	-0.953125 	0.5 	9.77355
-0.03125 	-0.953125 	0.5 	9.9637
-0.015625 	-0.953125 	0.5 	10.2053
0 	-0.953125 	0.5 	10.4972
0.015625 	-0.953125 	0.5 	10.702
0.03125 	-0.953125 	0.5 	10.9026
0.046875 	-0.953125 	0.5 	11.115
0.0625 	-0.953125 	0.5 	11.3501
0.078125 	-0.953125 	0.5 	11.5954
0.09375 	-0.953125 	0.5 	11.7837
0.109375 	-0.953125 	0.5 	12.0264
0.125 	-0.953125 	0.5 	12.3353
0.140625 	-0.953125 	0.5 	12.4379
0.15625 	-0.953125 	0.5 	12.4
0.171875 	-0.953125 	0.5 	12.591
0.1875 	-0.953125 	0.5 	12.7561
0.203125 	-0.953125 	0.5 	12.9325
0.21875 	-0.953125 	0.5 	13.1076
0.234375 	-0.953125 	0.5 	13.2915
0.25 	-0.953125 	0.5 	13.4555
0.265625 	-0.953125 	0.5 	13.6113
0.28125 	-0.953125 	0.5 	13.7075
0.296875 	-0.953125 	0.5 	13.9346
0.3125 	-0.953125 	0.5 	14.002
0.328125 	-0.953125 	0.5 	14.0296
0.34375 	-0.953125 	0.5 	14.1093
0.359375 	-0.953125 	0.5 	14.1855
0.375 	-0.953125 	0.5 	14.257
0.390625 	-0.953125 	0.5 	14.315
0.40625 	-0.953125 	0.5 	14.3731
0.421875 	-0.953125 	0.5 	14.4099
0.4375 	-0.953125 	0.5 	14.4963
0.453125 	-0.953125 	0.5 	14.5994
0.46875 	-0.953125 	0.5 	14.7159
0.484375 	-0.953125 	0.5 	14.6332
0.5 	-0.953125 	0.5 	14.6424
0.515625 	-0.953125 	0.5 	14.6233
0.53125 	-0.953125 	0.5 	14.6492
0.546875 	-0.953125 	0.5 	14.5983
0.5625 	-0.953125 	0.5 	14.5889
0.578125 	-0.953125 	0.5 	14.5535
0.59375 	-0.953125 	0.5 	14.5279
0.609375 	-0.953125 	0.5 	14.5023
0.625 	-0.953125 	0.5 	14.3731
0.640625 	-0.953125 	0.5 	14.3059
0.65625 	-0.953125 	0.5 	14.246
0.671875 	-0.953125 	0.5 	14.2136
0.6875 	-0.953125 	0.5 	14.0387
0.703125 	-0.953125 	0.5 	13.8553
0.71875 	-0.953125 	0.5 	13.6915
0.734375 	-0.953125 	0.5 	13.6226
0.75 	-0.953125 	0.5 	13.4935
0.765625 	-0.953125 	0.5 	13.3554
0.78125 	-0.953125 	0.5 	13.0414
0.796875 	-0.953125 	0.5 	12.9812
0.8125 	-0.953125 	0.5 	12.7697
0.828125 	-0.953125 	0.5 	12.5304
0.84375 	-0.953125 	0.5 	12.3243
0.859375 	-0.953125 	0.5 	12.1353
0.875 	-0.953125 	0.5 	11.8904
0.890625 	-0.953125 	0.5 	11.6433
0.90625 	-0.953125 	0.5 	11.3914
0.921875 	-0.953125 	0.5 	11.0742
0.9375 	-0.953125 	0.5 	10.8137
0.953125 	-0.953125 	0.5 	10.5142
0.96875 	-0.953125 	0.5 	10.2032
0.984375 	-0.953125 	0.5 	9.89779
1 	-0.953125 	0.5 	9.60288
1.01562 	-0.953125 	0.5 	9.32466
1.03125 	-0.953125 	0.5 	9.03955
1.04688 	-0.953125 	0.5 	8.70163
1.0625 	-0.953125 	0.5 	8.34185
1.07812 	-0.953125 	0.5 	7.96356
1.09375 	-0.953125 	0.5 	7.58369
1.10938 	-0.953125 	0.5 	7.24238
1.125 	-0.953125 	0.5 	6.94457
1.14062 	-0.953125 	0.5 	6.63114
1.15625 	-0.953125 	0.5 	6.17084
1.17188 	-0.953125 	0.5 	5.88352
1.1875 	-0.953125 	0.5 	5.59994
1.20312 	-0.953125 	0.5 	5.19702
1.21875 	-0.953125 	0.5 	4.58663
1.23438 	-0.953125 	0.5 	4.15535
1.25 	-0.953125 	0.5 	3.7969
1.26562 	-0.953125 	0.5 	3.47266
1.28125 	-0.953125 	0.5 	3.16606
1.29688 	-0.953125 	0.5 	2.7414
1.3125 	-0.953125 	0.5 	2.30801
1.32812 	-0.953125 	0.5 	1.87463
1.34375 	-0.953125 	0.5 	1.47238
1.35938 	-0.953125 	0.5 	1.10472
1.375 	-0.953125 	0.5 	0.762598
1.39062 	-0.953125 	0.5 	0.421545
1.40625 	-0.953125 	0.5 	-0.0973572
1.42188 	-0.953125 	0.5 	-0.549978
1.4375 	-0.953125 	0.5 	-0.965955
1.45312 	-0.953125 	0.5 	-1.39817
1.46875 	-0.953125 	0.5 	-1.73723
1.48438 	-0.953125 	0.5 	-2.09
-0.5 	-0.9375 	0.5 	1.13167
-0.484375 	-0.9375 	0.5 	1.31095
-0.46875 	-0.9375 	0.5 	1.70098
-0.453125 	-0.9375 	0.5 	2.11235
-0.4375 	-0.9375 	0.5 	2.48706
-0.421875 	-0.9375 	0.5 	2.88528
-0.40625 	-0.9375 	0.5 	3.2726
-0.390625 	-0.9375 	0.5 	3.58219
-0.375 	-0.9375 	0.5 	3.89498
-0.359375 	-0.9375 	0.5 	4.17922
-0.34375 	-0.9375 	0.5 	4.48775
-0.328125 	-0.9375 	0.5 	4.81319
-0.3125 	-0.9375 	0.5 	5.13276
-0.296875 	-0.9375 	0.5 	5.52768
-0.28125 	-0.9375 	0.5 	5.85019
-0.265625 	-0.9375 	0.5 	6.26687
-0.25 	-0.9375 	0.5 	6.56487
-0.234375 	-0.9375 	0.5 	6.76434
-0.21875 	-0.9375 	0.5 	7.1138
-0.203125 	-0.9375 	0.5 	7.42599
-0.1875 	-0.9375 	0.5 	7.67675
-0.171875 	-0.9375 	0.5 	7.99489
-0.15625 	-0.9375 	0.5 	8.1756
-0.140625 	-0.9375 	0.5 	8.51542
-0.125 	-0.9375 	0.5 	8.79396
-0.109375 	-0.9375 	0.5 	9.10704
-0.09375 	-0.9375 	0.5 	9.35381
-0.078125 	-0.9375 	0.5 	9.72759
-0.0625 	-0.9375 	0.5 	9.83517
-0.046875 	-0.9375 	0.5 	10.034
-0.03125 	-0.9375 	0.5 	10.2409
-0.015625 	-0.9375 	0.5 	10.557
0 	-0.9375 	0.5 	10.7946
0.015625 	-0.9375 	0.5 	11.005
0.03125 	-0.9375 	0.5 	11.1762
0.046875 	-0.9375 	0.5 	11.4859
0.0625 	-0.9375 	0.5 	11.7453
0.078125 	-0.9375 	0.5 	11.9569
0.09375 	-0.9375 	0.5 	12.0912
0.109375 	-0.9375 	0.5 	12.4203
0.125 	-0.9375 	0.5 	12.5843
0.140625 	-0.9375 	0.5 	12.8418
0.15625 	-0.9375 	0.5 	12.8034
0.171875 	-0.9375 	0.5 	13.019
0.1875 	-0.9375 	0.5 	13.1557
0.203125 	-0.9375 	0.5 	13.354
0.21875 	-0.9375 	0.5 	13.534
0.234375 	-0.9375 	0.5 	13.701
0.25 	-0.9375 	0.5 	13.8291
0.265625 	-0.9375 	0.5 	13.9959
0.28125 	-0.9375 	0.5 	14.0804
0.296875 	-0.9375 	0.5 	14.2932
0.3125 	-0.9375 	0.5 	14.3857
0.328125 	-0.9375 	0.5 	14.5648
0.34375 	-0.9375 	0.5 	14.5716
0.359375 	-0.9375 	0.5 	14.642
0.375 	-0.9375 	0.5 	14.7076
0.390625 	-0.9375 	0.5 	14.769
0.40625 	-0.9375 	0.5 	14.8341
0.421875 	-0.9375 	0.5 	14.7993
0.4375 	-0.9375 	0.5 	14.9734
0.453125 	-0.9375 	0.5 	15.0709
0.46875 	-0.9375 	0.5 	15.2148
0.484375 	-0.9375 	0.5 	15.1204
0.5 	-0.9375 	0.5 	15.084
0.515625 	-0.9375 	0.5 	14.9619
0.53125 	-0.9375 	0.5 	15.122
0.546875 	-0.9375 	0.5 	15.1652
0.5625 	-0.9375 	0.5 	15.1233
0.578125 	-0.9375 	0.5 	15.0236
0.59375 	-0.9375 	0.5 	14.9234
0.609375 	-0.9375 	0.5 	14.883
0.625 	-0.9375 	0.5 	14.867
0.640625 	-0.9375 	0.5 	14.8054
0.65625 	-0.9375 	0.5 	14.7446
0.671875 	-0.9375 	0.5 	14.6606
0.6875 	-0.9375 	0.5 	14.5803
0.703125 	-0.9375 	0.5 	14.2325
0.71875 	-0.9375 	0.5 	14.1948
0.734375 	-0.9375 	0.5 	14.1062
0.75 	-0.9375 	0.5 	13.9932
0.765625 	-0.9375 	0.5 	13.8178
0.78125 	-0.9375 	0.5 	13.645
0.796875 	-0.9375 	0.5 	13.4548
0.8125 	-0.9375 	0.5 	13.2441
0.828125 	-0.9375 	0.5 	13.0048
0.84375 	-0.9375 	0.5 	12.7513
0.859375 	-0.9375 	0.5 	12.5385
0.875 	-0.9375 	0.5 	12.2815
0.890625 	-0.9375 	0.5 	12.0479
0.90625 	-0.9375 	0.5 	11.8396
0.921875 	-0.9375 	0.5 	11.5252
0.9375 	-0.9375 	0.5 	11.1749
0.953125 	-0.9375 	0.5 	10.9127
0.96875 	-0.9375 	0.5 	10.6131
0.984375 	-0.9375 	0.5 	10.2819
1 	-0.9375 	0.5 	10.0155
1.01562 	-0.9375 	0.5 	9.71585
1.03125 	-0.9375 	0.5 	9.39857
1.04688 	-0.9375 	0.5 	9.05657
1.0625 	-0.9375 	0.5 	8.6669
1.07812 	-0.9375 	0.5 	8.21418
1.09375 	-0.9375 	0.5 	7.88412
1.10938 	-0.9375 	0.5 	7.52335
1.125 	-0.9375 	0.5 	7.22574
1.14062 	-0.9375 	0.5 	6.92645
1.15625 	-0.9375 	0.5 	6.38585
1.17188 	-0.9375 	0.5 	6.04811
1.1875 	-0.9375 	0.5 	5.93174
1.20312 	-0.9375 	0.5 	5.34524
1.21875 	-0.9375 	0.5 	4.85125
1.23438 	-0.9375 	0.5 	4.4054
1.25 	-0.9375 	0.5 	3.99804
1.26562 	-0.9375 	0.5 	3.66628
1.28125 	-0.9375 	0.5 	3.31295
1.29688 	-0.9375 	0.5 	2.97969
1.3125 	-0.9375 	0.5 	2.58388
1.32812 	-0.9375 	0.5 	2.09714
1.34375 	-0.9375 	0.5 	1.68719
1.35938 	-0.9375 	0.5 	1.19991
1.375 	-0.9375 	0.5 	0.804982
1.39062 	-0.9375 	0.5 	0.433724
1.40625 	-0.9375 	0.5 	-0.0111089
1.42188 	-0.9375 	0.5 	-0.441713
1.4375 	-0.9375 	0.5 	-0.859057
1.45312 	-0.9375 	0.5 	-1.2743
1.46875 	-0.9375 	0.5 	-1.65252
1.48438 	-0.9375 	0.5 	-2.00096
-0.5 	-0.921875 	0.5 	1.35984
-0.484375 	-0.921875 	0.5 	1.60717
-0.46875 	-0.921875 	0.5 	1.97533
-0.453125 	-0.921875 	0.5 	2.31472
-0.4375 	-0.921875 	0.5 	2.70284
-0.421875 	-0.921875 	0.5 	3.0964
-0.40625 	-0.921875 	0.5 	3.48159
-0.390625 	-0.921875 	0.5 	3.79098
-0.375 	-0.921875 	0.5 	4.10261
-0.359375 	-0.921875 	0.5 	4.41874
-0.34375 	-0.921875 	0.5 	4.73064
-0.328125 	-0.921875 	0.5 	5.02229
-0.3125 	-0.921875 	0.5 	5.35937
-0.296875 	-0.921875 	0.5 	5.70549
-0.28125 	-0.921875 	0.5 	6.07447
-0.265625 	-0.921875 	0.5 	6.38892
-0.25 	-0.921875 	0.5 	6.67383
-0.234375 	-0.921875 	0.5 	7.04936
-0.21875 	-0.921875 	0.5 	7.35061
-0.203125 	-0.921875 	0.5 	7.67301
-0.1875 	-0.921875 	0.5 	7.97177
-0.171875 	-0.921875 	0.5 	8.23848
-0.15625 	-0.921875 	0.5 	8.48867
-0.140625 	-0.921875 	0.5 	8.79208
-0.125 	-0.921875 	0.5 	9.07325
-0.109375 	-0.921875 	0.5 	9.3735
-0.09375 	-0.921875 	0.5 	9.67573
-0.078125 	-0.921875 	0.5 	9.88925
-0.0625 	-0.921875 	0.5 	10.2283
-0.046875 	-0.921875 	0.5 	10.3461
-0.03125 	-0.921875 	0.5 	10.6384
-0.015625 	-0.921875 	0.5 	10.8915
0 	-0.921875 	0.5 	11.1438
0.015625 	-0.921875 	0.5 	11.3416
0.03125 	-0.921875 	0.5 	11.6149
0.046875 	-0.921875 	0.5 	11.7961
0.0625 	-0.921875 	0.5 	12.0919
0.078125 	-0.921875 	0.5 	12.3908
0.09375 	-0.921875 	0.5 	12.554
0.109375 	-0.921875 	0.5 	12.7122
0.125 	-0.921875 	0.5 	12.9531
0.140625 	-0.921875 	0.5 	13.1428
0.15625 	-0.921875 	0.5 	13.326
0.171875 	-0.921875 	0.5 	13.4257
0.1875 	-0.921875 	0.5 	13.5901
0.203125 	-0.921875 	0.5 	13.7712
0.21875 	-0.921875 	0.5 	13.9518
0.234375 	-0.921875 	0.5 	14.0907
0.25 	-0.921875 	0.5 	14.2367
0.265625 	-0.921875 	0.5 	14.4062
0.28125 	-0.921875 	0.5 	14.5449
0.296875 	-0.921875 	0.5 	14.6912
0.3125 	-0.921875 	0.5 	14.8431
0.328125 	-0.921875 	0.5 	14.9316
0.34375 	-0.921875 	0.5 	15.0226
0.359375 	-0.921875 	0.5 	15.1117
0.375 	-0.921875 	0.5 	15.1961
0.390625 	-0.921875 	0.5 	15.2365
0.40625 	-0.921875 	0.5 	15.3237
0.421875 	-0.921875 	0.5 	15.374
0.4375 	-0.921875 	0.5 	15.3876
0.453125 	-0.921875 	0.5 	15.553
0.46875 	-0.921875 	0.5 	15.5906
0.484375 	-0.921875 	0.5 	15.6025
0.5 	-0.921875 	0.5 	15.4459
0.515625 	-0.921875 	0.5 	15.5259
0.53125 	-0.921875 	0.5 	15.6314
0.546875 	-0.921875 	0.5 	15.6415
0.5625 	-0.921875 	0.5 	15.5786
0.578125 	-0.921875 	0.5 	15.5018
0.59375 	-0.921875 	0.5 	15.5063
0.609375 	-0.921875 	0.5 	15.4467
0.625 	-0.921875 	0.5 	15.3682
0.640625 	-0.921875 	0.5 	15.312
0.65625 	-0.921875 	0.5 	15.2386
0.671875 	-0.921875 	0.5 	15.1185
0.6875 	-0.921875 	0.5 	15.0003
0.703125 	-0.921875 	0.5 	14.8009
0.71875 	-0.921875 	0.5 	14.701
0.734375 	-0.921875 	0.5 	14.5776
0.75 	-0.921875 	0.5 	14.4882
0.765625 	-0.921875 	0.5 	14.3411
0.78125 	-0.921875 	0.5 	14.113
0.796875 	-0.921875 	0.5 	13.9411
0.8125 	-0.921875 	0.5 	13.7079
0.828125 	-0.921875 	0.5 	13.4698
0.84375 	-0.921875 	0.5 	13.2716
0.859375 	-0.921875 	0.5 	12.9932
0.875 	-0.921875 	0.5 	12.7371
0.890625 	-0.921875 	0.5 	12.5227
0.90625 	-0.921875 	0.5 	12.2104
0.921875 	-0.921875 	0.5 	11.8648
0.9375 	-0.921875 	0.5 	11.5856
0.953125 	-0.921875 	0.5 	11.3059
0.96875 	-0.921875 	0.5 	11.0058
0.984375 	-0.921875 	0.5 	10.7012
1 	-0.921875 	0.5 	10.4121
1.01562 	-0.921875 	0.5 	10.0936
1.03125 	-0.921875 	0.5 	9.76313
1.04688 	-0.921875 	0.5 	9.40915
1.0625 	-0.921875 	0.5 	9.00494
1.07812 	-0.921875 	0.5 	8.61764
1.09375 	-0.921875 	0.5 	8.27238
1.10938 	-0.921875 	0.5 	7.8368
1.125 	-0.921875 	0.5 	7.37912
1.14062 	-0.921875 	0.5 	6.99463
1.15625 	-0.921875 	0.5 	6.63182
1.17188 	-0.921875 	0.5 	6.29184
1.1875 	-0.921875 	0.5 	6.12599
1.20312 	-0.921875 	0.5 	5.74634
1.21875 	-0.921875 	0.5 	5.01054
1.23438 	-0.921875 	0.5 	4.60576
1.25 	-0.921875 	0.5 	4.18898
1.26562 	-0.921875 	0.5 	3.90516
1.28125 	-0.921875 	0.5 	3.41658
1.29688 	-0.921875 	0.5 	3.07914
1.3125 	-0.921875 	0.5 	2.57146
1.32812 	-0.921875 	0.5 	2.31152
1.34375 	-0.921875 	0.5 	1.78644
1.35938 	-0.921875 	0.5 	1.37808
1.375 	-0.921875 	0.5 	0.870635
1.39062 	-0.921875 	0.5 	0.487357
1.40625 	-0.921875 	0.5 	0.0887461
1.42188 	-0.921875 	0.5 	-0.363113
1.4375 	-0.921875 	0.5 	-0.785485
1.45312 	-0.921875 	0.5 	-1.20786
1.46875 	-0.921875 	0.5 	-1.57156
1.48438 	-0.921875 	0.5 	-1.90826
-0.5 	-0.90625 	0.5 	1.37568
-0.484375 	-0.90625 	0.5 	1.7754
-0.46875 	-0.90625 	0.5 	2.16442
-0.453125 	-0.90625 	0.5 	2.48579
-0.4375 	-0.90625 	0.5 	2.91351
-0.421875 	-0.90625 	0.5 	3.30111
-0.40625 	-0.90625 	0.5 	3.68792
-0.390625 	-0.90625 	0.5 	4.00214
-0.375 	-0.90625 	0.5 	4.30919
-0.359375 	-0.90625 	0.5 	4.58396
-0.34375 	-0.90625 	0.5 	4.94005
-0.328125 	-0.90625 	0.5 	5.21658
-0.3125 	-0.90625 	0.5 	5.51479
-0.296875 	-0.90625 	0.5 	5.92051
-0.28125 	-0.90625 	0.5 	6.30142
-0.265625 	-0.90625 	0.5 	6.62319
-0.25 	-0.90625 	0.5 	6.87145
-0.234375 	-0.90625 	0.5 	7.30555
-0.21875 	-0.90625 	0.5 	7.54466
-0.203125 	-0.90625 	0.5 	7.89403
-0.1875 	-0.90625 	0.5 	8.19993
-0.171875 	-0.90625 	0.5 	8.43311
-0.15625 	-0.90625 	0.5 	8.77783
-0.140625 	-0.90625 	0.5 	9.11407
-0.125 	-0.90625 	0.5 	9.39739
-0.109375 	-0.90625 	0.5 	9.66766
-0.09375 	-0.90625 	0.5 	9.9535
-0.078125 	-0.90625 	0.5 	10.2551
-0.0625 	-0.90625 	0.5 	10.5567
-0.046875 	-0.90625 	0.5 	10.6847
-0.03125 	-0.90625 	0.5 	11.0083
-0.015625 	-0.90625 	0.5 	11.2757
0 	-0.90625 	0.5 	11.4937
0.015625 	-0.90625 	0.5 	11.707
0.03125 	-0.90625 	0.5 	11.9372
0.046875 	-0.90625 	0.5 	12.1934
0.0625 	-0.90625 	0.5 	12.44
0.078125 	-0.90625 	0.5 	12.6677
0.09375 	-0.90625 	0.5 	12.8954
0.109375 	-0.90625 	0.5 	13.0766
0.125 	-0.90625 	0.5 	13.2883
0.140625 	-0.90625 	0.5 	13.5061
0.15625 	-0.90625 	0.5 	13.8561
0.171875 	-0.90625 	0.5 	13.9282
0.1875 	-0.90625 	0.5 	14.0556
0.203125 	-0.90625 	0.5 	14.1835
0.21875 	-0.90625 	0.5 	14.3576
0.234375 	-0.90625 	0.5 	14.5017
0.25 	-0.90625 	0.5 	14.6994
0.265625 	-0.90625 	0.5 	14.8455
0.28125 	-0.90625 	0.5 	15.0067
0.296875 	-0.90625 	0.5 	15.15
0.3125 	-0.90625 	0.5 	15.2511
0.328125 	-0.90625 	0.5 	15.2498
0.34375 	-0.90625 	0.5 	15.499
0.359375 	-0.90625 	0.5 	15.6817
0.375 	-0.90625 	0.5 	15.6835
0.390625 	-0.90625 	0.5 	15.7454
0.40625 	-0.90625 	0.5 	15.8487
0.421875 	-0.90625 	0.5 	15.9133
0.4375 	-0.90625 	0.5 	15.9795
0.453125 	-0.90625 	0.5 	15.9797
0.46875 	-0.90625 	0.5 	16.0174
0.484375 	-0.90625 	0.5 	16.0582
0.5 	-0.90625 	0.5 	16.0802
0.515625 	-0.90625 	0.5 	16.1416
0.53125 	-0.90625 	0.5 	16.1309
0.546875 	-0.90625 	0.5 	16.1369
0.5625 	-0.90625 	0.5 	16.1227
0.578125 	-0.90625 	0.5 	16.0225
0.59375 	-0.90625 	0.5 	16.0177
0.609375 	-0.90625 	0.5 	15.9669
0.625 	-0.90625 	0.5 	15.8771
0.640625 	-0.90625 	0.5 	15.8218
0.65625 	-0.90625 	0.5 	15.7565
0.671875 	-0.90625 	0.5 	15.6498
0.6875 	-0.90625 	0.5 	15.5047
0.703125 	-0.90625 	0.5 	15.3715
0.71875 	-0.90625 	0.5 	15.2341
0.734375 	-0.90625 	0.5 	15.0541
0.75 	-0.90625 	0.5 	14.9363
0.765625 	-0.90625 	0.5 	14.8075
0.78125 	-0.90625 	0.5 	14.584
0.796875 	-0.90625 	0.5 	14.3462
0.8125 	-0.90625 	0.5 	14.1406
0.828125 	-0.90625 	0.5 	14.0606
0.84375 	-0.90625 	0.5 	13.7976
0.859375 	-0.90625 	0.5 	13.5178
0.875 	-0.90625 	0.5 	13.2468
0.890625 	-0.90625 	0.5 	12.9754
0.90625 	-0.90625 	0.5 	12.6472
0.921875 	-0.90625 	0.5 	12.3126
0.9375 	-0.90625 	0.5 	11.9963
0.953125 	-0.90625 	0.5 	11.701
0.96875 	-0.90625 	0.5 	11.402
0.984375 	-0.90625 	0.5 	11.1123
1 	-0.90625 	0.5 	10.77
1.01562 	-0.90625 	0.5 	10.424
1.03125 	-0.90625 	0.5 	10.101
1.04688 	-0.90625 	0.5 	9.91039
1.0625 	-0.90625 	0.5 	9.43858
1.07812 	-0.90625 	0.5 	9.00697
1.09375 	-0.90625 	0.5 	8.5241
1.10938 	-0.90625 	0.5 	8.0749
1.125 	-0.90625 	0.5 	7.73669
1.14062 	-0.90625 	0.5 	7.19232
1.15625 	-0.90625 	0.5 	6.86118
1.17188 	-0.90625 	0.5 	6.50137
1.1875 	-0.90625 	0.5 	6.19316
1.20312 	-0.90625 	0.5 	5.84714
1.21875 	-0.90625 	0.5 	5.3156
1.23438 	-0.90625 	0.5 	4.85175
1.25 	-0.90625 	0.5 	4.47596
1.26562 	-0.90625 	0.5 	4.00729
1.28125 	-0.90625 	0.5 	3.52022
1.29688 	-0.90625 	0.5 	3.14146
1.3125 	-0.90625 	0.5 	2.8631
1.32812 	-0.90625 	0.5 	2.4953
1.34375 	-0.90625 	0.5 	1.83544
1.35938 	-0.90625 	0.5 	1.42347
1.375 	-0.90625 	0.5 	1.07387
1.39062 	-0.90625 	0.5 	0.656852
1.40625 	-0.90625 	0.5 	0.199994
1.42188 	-0.90625 	0.5 	-0.326691
1.4375 	-0.90625 	0.5 	-0.72379
1.45312 	-0.90625 	0.5 	-1.0633
1.46875 	-0.90625 	0.5 	-1.50723
1.48438 	-0.90625 	0.5 	-1.848
-0.5 	-0.890625 	0.5 	1.53926
-0.484375 	-0.890625 	0.5 	1.84248
-0.46875 	-0.890625 	0.5 	2.27321
-0.453125 	-0.890625 	0.5 	2.65685
-0.4375 	-0.890625 	0.5 	3.06502
-0.421875 	-0.890625 	0.5 	3.46158
-0.40625 	-0.890625 	0.5 	3.86246
-0.390625 	-0.890625 	0.5 	4.20391
-0.375 	-0.890625 	0.5 	4.44195
-0.359375 	-0.890625 	0.5 	4.73599
-0.34375 	-0.890625 	0.5 	5.13814
-0.328125 	-0.890625 	0.5 	5.51758
-0.3125 	-0.890625 	0.5 	5.80114
-0.296875 	-0.890625 	0.5 	6.22716
-0.28125 	-0.890625 	0.5 	6.55689
-0.265625 	-0.890625 	0.5 	6.83967
-0.25 	-0.890625 	0.5 	7.22436
-0.234375 	-0.890625 	0.5 	7.56173
-0.21875 	-0.890625 	0.5 	7.87386
-0.203125 	-0.890625 	0.5 	8.19682
-0.1875 	-0.890625 	0.5 	8.50392
-0.171875 	-0.890625 	0.5 	8.80885
-0.15625 	-0.890625 	0.5 	9.09222
-0.140625 	-0.890625 	0.5 	9.41021
-0.125 	-0.890625 	0.5 	9.72695
-0.109375 	-0.890625 	0.5 	10.0403
-0.09375 	-0.890625 	0.5 	10.2711
-0.078125 	-0.890625 	0.5 	10.5003
-0.0625 	-0.890625 	0.5 	10.7406
-0.046875 	-0.890625 	0.5 	11.0731
-0.03125 	-0.890625 	0.5 	11.3579
-0.015625 	-0.890625 	0.5 	11.6344
0 	-0.890625 	0.5 	11.8619
0.015625 	-0.890625 	0.5 	12.0927
0.03125 	-0.890625 	0.5 	12.3704
0.046875 	-0.890625 	0.5 	12.6034
0.0625 	-0.890625 	0.5 	12.8237
0.078125 	-0.890625 	0.5 	13.0432
0.09375 	-0.890625 	0.5 	13.2725
0.109375 	-0.890625 	0.5 	13.4286
0.125 	-0.890625 	0.5 	13.6591
0.140625 	-0.890625 	0.5 	13.8859
0.15625 	-0.890625 	0.5 	14.1775
0.171875 	-0.890625 	0.5 	14.3273
0.1875 	-0.890625 	0.5 	14.5003
0.203125 	-0.890625 	0.5 	14.6196
0.21875 	-0.890625 	0.5 	14.7648
0.234375 	-0.890625 	0.5 	14.9518
0.25 	-0.890625 	0.5 	15.1366
0.265625 	-0.890625 	0.5 	15.3089
0.28125 	-0.890625 	0.5 	15.4719
0.296875 	-0.890625 	0.5 	15.5986