-0.5 	-1 	0.5 	67.9887
-0.484375 	-1 	0.5 	68.0817
-0.46875 	-1 	0.5 	68.1578
-0.453125 	-1 	0.5 	68.2518
-0.4375 	-1 	0.5 	68.2905
-0.421875 	-1 	0.5 	68.4303
-0.40625 	-1 	0.5 	68.5472
-0.390625 	-1 	0.5 	68.6561
-0.375 	-1 	0.5 	68.7089
-0.359375 	-1 	0.5 	68.7939
-0.34375 	-1 	0.5 	68.8252
-0.328125 	-1 	0.5 	68.8517
-0.3125 	-1 	0.5 	68.9132
-0.296875 	-1 	0.5 	69.0028
-0.28125 	-1 	0.5 	69.0661
-0.265625 	-1 	0.5 	69.0753
-0.25 	-1 	0.5 	69.0825
-0.234375 	-1 	0.5 	69.0856
-0.21875 	-1 	0.5 	69.1013
-0.203125 	-1 	0.5 	69.0934
-0.1875 	-1 	0.5 	69.1131
-0.171875 	-1 	0.5 	69.1001
-0.15625 	-1 	0.5 	69.0978
-0.140625 	-1 	0.5 	69.1221
-0.125 	-1 	0.5 	69.1361
-0.109375 	-1 	0.5 	69.1491
-0.09375 	-1 	0.5 	69.0905
-0.078125 	-1 	0.5 	69.0579
-0.0625 	-1 	0.5 	69.0148
-0.046875 	-1 	0.5 	68.9634
-0.03125 	-1 	0.5 	68.9704
-0.015625 	-1 	0.5 	68.9768
0 	-1 	0.5 	68.9345
0.015625 	-1 	0.5 	68.907
0.03125 	-1 	0.5 	68.8708
0.046875 	-1 	0.5 	68.8371
0.0625 	-1 	0.5 	68.7955
0.078125 	-1 	0.5 	68.7716
0.09375 	-1 	0.5 	68.7361
0.109375 	-1 	0.5 	68.7109
0.125 	-1 	0.5 	68.7072
0.140625 	-1 	0.5 	68.7372
0.15625 	-1 	0.5 	68.6998
0.171875 	-1 	0.5 	68.6654
0.1875 	-1 	0.5 	68.6427
0.203125 	-1 	0.5 	68.6076
0.21875 	-1 	0.5 	68.5913
0.234375 	-1 	0.5 	68.5703
0.25 	-1 	0.5 	68.5551
0.265625 	-1 	0.5 	68.5641
0.28125 	-1 	0.5 	68.5764
0.296875 	-1 	0.5 	68.58
0.3125 	-1 	0.5 	68.6178
0.328125 	-1 	0.5 	68.5846
0.34375 	-1 	0.5 	68.5957
0.359375 	-1 	0.5 	68.6271
0.375 	-1 	0.5 	68.6377
0.390625 	-1 	0.5 	68.654
0.40625 	-1 	0.5 	68.666
0.421875 	-1 	0.5 	68.6749
0.4375 	-1 	0.5 	68.6959
0.453125 	-1 	0.5 	68.7151
0.46875 	-1 	0.5 	68.734
0.484375 	-1 	0.5 	68.7455
0.5 	-1 	0.5 	68.7239
0.515625 	-1 	0.5 	68.7651
0.53125 	-1 	0.5 	68.7994
0.546875 	-1 	0.5 	68.8255
0.5625 	-1 	0.5 	68.8387
0.578125 	-1 	0.5 	68.8397
0.59375 	-1 	0.5 	68.8361
0.609375 	-1 	0.5 	68.8676
0.625 	-1 	0.5 	68.8619
0.640625 	-1 	0.5 	68.8699
0.65625 	-1 	0.5 	68.8779
0.671875 	-1 	0.5 	68.8727
0.6875 	-1 	0.5 	68.8599
0.703125 	-1 	0.5 	68.8551
0.71875 	-1 	0.5 	68.8694
0.734375 	-1 	0.5 	68.8734
0.75 	-1 	0.5 	68.8982
0.765625 	-1 	0.5 	68.822
0.78125 	-1 	0.5 	68.7633
0.796875 	-1 	0.5 	68.7145
0.8125 	-1 	0.5 	68.6431
0.828125 	-1 	0.5 	68.5734
0.84375 	-1 	0.5 	68.5189
0.859375 	-1 	0.5 	68.4782
0.875 	-1 	0.5 	68.4455
0.890625 	-1 	0.5 	68.4422
0.90625 	-1 	0.5 	68.3318
0.921875 	-1 	0.5 	68.2584
0.9375 	-1 	0.5 	68.1775
0.953125 	-1 	0.5 	68.0831
0.96875 	-1 	0.5 	67.9865
0.984375 	-1 	0.5 	67.8888
1 	-1 	0.5 	67.7468
1.01562 	-1 	0.5 	67.58
1.03125 	-1 	0.5 	67.4908
1.04688 	-1 	0.5 	67.3655
1.0625 	-1 	0.5 	67.3095
1.07812 	-1 	0.5 	67.1643
1.09375 	-1 	0.5 	67.0204
1.10938 	-1 	0.5 	66.8503
1.125 	-1 	0.5 	66.7018
1.14062 	-1 	0.5 	66.5489
1.15625 	-1 	0.5 	66.4026
1.17188 	-1 	0.5 	66.2561
1.1875 	-1 	0.5 	66.0881
1.20312 	-1 	0.5 	65.9151
1.21875 	-1 	0.5 	65.7428
1.23438 	-1 	0.5 	65.5706
1.25 	-1 	0.5 	65.3909
1.26562 	-1 	0.5 	65.1779
1.28125 	-1 	0.5 	64.9708
1.29688 	-1 	0.5 	64.7846
1.3125 	-1 	0.5 	64.5995
1.32812 	-1 	0.5 	64.4399
1.34375 	-1 	0.5 	64.2673
1.35938 	-1 	0.5 	64.0794
1.375 	-1 	0.5 	63.8837
1.39062 	-1 	0.5 	63.6793
1.40625 	-1 	0.5 	63.4576
1.42188 	-1 	0.5 	63.2429
1.4375 	-1 	0.5 	63.0255
1.45312 	-1 	0.5 	62.808
1.46875 	-1 	0.5 	62.5988
1.48438 	-1 	0.5 	62.4138
-0.5 	-0.984375 	0.5 	68.1816
-0.484375 	-0.984375 	0.5 	68.2759
-0.46875 	-0.984375 	0.5 	68.3824
-0.453125 	-0.984375 	0.5 	68.478
-0.4375 	-0.984375 	0.5 	68.5666
-0.421875 	-0.984375 	0.5 	68.6551
-0.40625 	-0.984375 	0.5 	68.7437
-0.390625 	-0.984375 	0.5 	68.8084
-0.375 	-0.984375 	0.5 	68.8692
-0.359375 	-0.984375 	0.5 	69.006
-0.34375 	-0.984375 	0.5 	69.0564
-0.328125 	-0.984375 	0.5 	69.0852
-0.3125 	-0.984375 	0.5 	69.1097
-0.296875 	-0.984375 	0.5 	69.1479
-0.28125 	-0.984375 	0.5 	69.1862
-0.265625 	-0.984375 	0.5 	69.2435
-0.25 	-0.984375 	0.5 	69.2865
-0.234375 	-0.984375 	0.5 	69.2906
-0.21875 	-0.984375 	0.5 	69.3025
-0.203125 	-0.984375 	0.5 	69.3008
-0.1875 	-0.984375 	0.5 	69.3316
-0.171875 	-0.984375 	0.5 	69.3377
-0.15625 	-0.984375 	0.5 	69.3478
-0.140625 	-0.984375 	0.5 	69.3119
-0.125 	-0.984375 	0.5 	69.2909
-0.109375 	-0.984375 	0.5 	69.2891
-0.09375 	-0.984375 	0.5 	69.2496
-0.078125 	-0.984375 	0.5 	69.239
-0.0625 	-0.984375 	0.5 	69.2531
-0.046875 	-0.984375 	0.5 	69.216
-0.03125 	-0.984375 	0.5 	69.1496
-0.015625 	-0.984375 	0.5 	69.1023
0 	-0.984375 	0.5 	69.0756
0.015625 	-0.984375 	0.5 	69.0444
0.03125 	-0.984375 	0.5 	69.0076
0.046875 	-0.984375 	0.5 	68.9738
0.0625 	-0.984375 	0.5 	68.942
0.078125 	-0.984375 	0.5 	68.9129
0.09375 	-0.984375 	0.5 	68.8841
0.109375 	-0.984375 	0.5 	68.8575
0.125 	-0.984375 	0.5 	68.8546
0.140625 	-0.984375 	0.5 	68.822
0.15625 	-0.984375 	0.5 	68.793
0.171875 	-0.984375 	0.5 	68.7647
0.1875 	-0.984375 	0.5 	68.7106
0.203125 	-0.984375 	0.5 	68.726
0.21875 	-0.984375 	0.5 	68.7163
0.234375 	-0.984375 	0.5 	68.696
0.25 	-0.984375 	0.5 	68.6832
0.265625 	-0.984375 	0.5 	68.6861
0.28125 	-0.984375 	0.5 	68.6753
0.296875 	-0.984375 	0.5 	68.719
0.3125 	-0.984375 	0.5 	68.7277
0.328125 	-0.984375 	0.5 	68.7148
0.34375 	-0.984375 	0.5 	68.723
0.359375 	-0.984375 	0.5 	68.7207
0.375 	-0.984375 	0.5 	68.7511
0.390625 	-0.984375 	0.5 	68.774
0.40625 	-0.984375 	0.5 	68.7813
0.421875 	-0.984375 	0.5 	68.7983
0.4375 	-0.984375 	0.5 	68.8198
0.453125 	-0.984375 	0.5 	68.8411
0.46875 	-0.984375 	0.5 	68.8617
0.484375 	-0.984375 	0.5 	68.8834
0.5 	-0.984375 	0.5 	68.9072
0.515625 	-0.984375 	0.5 	68.9327
0.53125 	-0.984375 	0.5 	68.9629
0.546875 	-0.984375 	0.5 	68.9764
0.5625 	-0.984375 	0.5 	68.977
0.578125 	-0.984375 	0.5 	68.9694
0.59375 	-0.984375 	0.5 	68.9913
0.609375 	-0.984375 	0.5 	69.0296
0.625 	-0.984375 	0.5 	69.0604
0.640625 	-0.984375 	0.5 	69.0916
0.65625 	-0.984375 	0.5 	69.0659
0.671875 	-0.984375 	0.5 	69.0605
0.6875 	-0.984375 	0.5 	69.0508
0.703125 	-0.984375 	0.5 	69.0549
0.71875 	-0.984375 	0.5 	69.0471
0.734375 	-0.984375 	0.5 	69.0626
0.75 	-0.984375 	0.5 	69.0353
0.765625 	-0.984375 	0.5 	68.9911
0.78125 	-0.984375 	0.5 	68.9578
0.796875 	-0.984375 	0.5 	68.9229
0.8125 	-0.984375 	0.5 	68.8878
0.828125 	-0.984375 	0.5 	68.83
0.84375 	-0.984375 	0.5 	68.7427
0.859375 	-0.984375 	0.5 	68.6951
0.875 	-0.984375 	0.5 	68.6454
0.890625 	-0.984375 	0.5 	68.6687
0.90625 	-0.984375 	0.5 	68.6012
0.921875 	-0.984375 	0.5 	68.4849
0.9375 	-0.984375 	0.5 	68.3765
0.953125 	-0.984375 	0.5 	68.2816
0.96875 	-0.984375 	0.5 	68.1867
0.984375 	-0.984375 	0.5 	68.0982
1 	-0.984375 	0.5 	67.9414
1.01562 	-0.984375 	0.5 	67.7727
1.03125 	-0.984375 	0.5 	67.7153
1.04688 	-0.984375 	0.5 	67.6039
1.0625 	-0.984375 	0.5 	67.5629
1.07812 	-0.984375 	0.5 	67.3672
1.09375 	-0.984375 	0.5 	67.2207
1.10938 	-0.984375 	0.5 	67.0355
1.125 	-0.984375 	0.5 	66.8885
1.14062 	-0.984375 	0.5 	66.7457
1.15625 	-0.984375 	0.5 	66.5895
1.17188 	-0.984375 	0.5 	66.4493
1.1875 	-0.984375 	0.5 	66.2681
1.20312 	-0.984375 	0.5 	66.0854
1.21875 	-0.984375 	0.5 	65.9014
1.23438 	-0.984375 	0.5 	65.7286
1.25 	-0.984375 	0.5 	65.5142
1.26562 	-0.984375 	0.5 	65.2708
1.28125 	-0.984375 	0.5 	65.0856
1.29688 	-0.984375 	0.5 	64.9244
1.3125 	-0.984375 	0.5 	64.7375
1.32812 	-0.984375 	0.5 	64.5927
1.34375 	-0.984375 	0.5 	64.4223
1.35938 	-0.984375 	0.5 	64.1854
1.375 	-0.984375 	0.5 	64.0048
1.39062 	-0.984375 	0.5 	63.7869
1.40625 	-0.984375 	0.5 	63.5624
1.42188 	-0.984375 	0.5 	63.3406
1.4375 	-0.984375 	0.5 	63.1237
1.45312 	-0.984375 	0.5 	62.871
1.46875 	-0.984375 	0.5 	62.6675
1.48438 	-0.984375 	0.5 	62.4126
-0.5 	-0.96875 	0.5 	68.3791
-0.484375 	-0.96875 	0.5 	68.4726
-0.46875 	-0.96875 	0.5 	68.5895
-0.453125 	-0.96875 	0.5 	68.7112
-0.4375 	-0.96875 	0.5 	68.8
-0.421875 	-0.96875 	0.5 	68.8884
-0.40625 	-0.96875 	0.5 	68.9905
-0.390625 	-0.96875 	0.5 	69.0487
-0.375 	-0.96875 	0.5 	69.1159
-0.359375 	-0.96875 	0.5 	69.2106
-0.34375 	-0.96875 	0.5 	69.2617
-0.328125 	-0.96875 	0.5 	69.3169
-0.3125 	-0.96875 	0.5 	69.3183
-0.296875 	-0.96875 	0.5 	69.3652
-0.28125 	-0.96875 	0.5 	69.3128
-0.265625 	-0.96875 	0.5 	69.4573
-0.25 	-0.96875 	0.5 	69.5395
-0.234375 	-0.96875 	0.5 	69.5207
-0.21875 	-0.96875 	0.5 	69.5061
-0.203125 	-0.96875 	0.5 	69.5221
-0.1875 	-0.96875 	0.5 	69.5524
-0.171875 	-0.96875 	0.5 	69.5234
-0.15625 	-0.96875 	0.5 	69.5147
-0.140625 	-0.96875 	0.5 	69.4977
-0.125 	-0.96875 	0.5 	69.4683
-0.109375 	-0.96875 	0.5 	69.4588
-0.09375 	-0.96875 	0.5 	69.4509
-0.078125 	-0.96875 	0.5 	69.4273
-0.0625 	-0.96875 	0.5 	69.4388
-0.046875 	-0.96875 	0.5 	69.3571
-0.03125 	-0.96875 	0.5 	69.317
-0.015625 	-0.96875 	0.5 	69.2504
0 	-0.96875 	0.5 	69.211
0.015625 	-0.96875 	0.5 	69.1819
0.03125 	-0.96875 	0.5 	69.147
0.046875 	-0.96875 	0.5 	69.1139
0.0625 	-0.96875 	0.5 	69.0743
0.078125 	-0.96875 	0.5 	69.0821
0.09375 	-0.96875 	0.5 	69.0415
0.109375 	-0.96875 	0.5 	69.003
0.125 	-0.96875 	0.5 	68.9493
0.140625 	-0.96875 	0.5 	68.9023
0.15625 	-0.96875 	0.5 	68.8927
0.171875 	-0.96875 	0.5 	68.8639
0.1875 	-0.96875 	0.5 	68.858
0.203125 	-0.96875 	0.5 	68.8588
0.21875 	-0.96875 	0.5 	68.8286
0.234375 	-0.96875 	0.5 	68.8155
0.25 	-0.96875 	0.5 	68.7978
0.265625 	-0.96875 	0.5 	68.7994
0.28125 	-0.96875 	0.5 	68.79
0.296875 	-0.96875 	0.5 	68.8203
0.3125 	-0.96875 	0.5 	68.8251
0.328125 	-0.96875 	0.5 	68.8323
0.34375 	-0.96875 	0.5 	68.8116
0.359375 	-0.96875 	0.5 	68.8416
0.375 	-0.96875 	0.5 	68.8573
0.390625 	-0.96875 	0.5 	68.8696
0.40625 	-0.96875 	0.5 	68.8977
0.421875 	-0.96875 	0.5 	68.9231
0.4375 	-0.96875 	0.5 	68.9445
0.453125 	-0.96875 	0.5 	68.9631
0.46875 	-0.96875 	0.5 	68.9908
0.484375 	-0.96875 	0.5 	69.016
0.5 	-0.96875 	0.5 	69.0547
0.515625 	-0.96875 	0.5 	69.0811
0.53125 	-0.96875 	0.5 	69.111
0.546875 	-0.96875 	0.5 	69.1263
0.5625 	-0.96875 	0.5 	69.1571
0.578125 	-0.96875 	0.5 	69.1645
0.59375 	-0.96875 	0.5 	69.1808
0.609375 	-0.96875 	0.5 	69.2097
0.625 	-0.96875 	0.5 	69.2322
0.640625 	-0.96875 	0.5 	69.263
0.65625 	-0.96875 	0.5 	69.2548
0.671875 	-0.96875 	0.5 	69.2553
0.6875 	-0.96875 	0.5 	69.2412
0.703125 	-0.96875 	0.5 	69.2439
0.71875 	-0.96875 	0.5 	69.2556
0.734375 	-0.96875 	0.5 	69.2198
0.75 	-0.96875 	0.5 	69.2228
0.765625 	-0.96875 	0.5 	69.2027
0.78125 	-0.96875 	0.5 	69.157
0.796875 	-0.96875 	0.5 	69.1146
0.8125 	-0.96875 	0.5 	69.0464
0.828125 	-0.96875 	0.5 	69.0337
0.84375 	-0.96875 	0.5 	68.9701
0.859375 	-0.96875 	0.5 	68.9156
0.875 	-0.96875 	0.5 	68.8706
0.890625 	-0.96875 	0.5 	68.8213
0.90625 	-0.96875 	0.5 	68.8151
0.921875 	-0.96875 	0.5 	68.7099
0.9375 	-0.96875 	0.5 	68.5694
0.953125 	-0.96875 	0.5 	68.471
0.96875 	-0.96875 	0.5 	68.3853
0.984375 	-0.96875 	0.5 	68.3136
1 	-0.96875 	0.5 	68.1502
1.01562 	-0.96875 	0.5 	68.0469
1.03125 	-0.96875 	0.5 	67.9214
1.04688 	-0.96875 	0.5 	67.8615
1.0625 	-0.96875 	0.5 	67.7446
1.07812 	-0.96875 	0.5 	67.5789
1.09375 	-0.96875 	0.5 	67.4019
1.10938 	-0.96875 	0.5 	67.2271
1.125 	-0.96875 	0.5 	67.0709
1.14062 	-0.96875 	0.5 	66.929
1.15625 	-0.96875 	0.5 	66.7802
1.17188 	-0.96875 	0.5 	66.6577
1.1875 	-0.96875 	0.5 	66.4455
1.20312 	-0.96875 	0.5 	66.2774
1.21875 	-0.96875 	0.5 	66.087
1.23438 	-0.96875 	0.5 	65.8834
1.25 	-0.96875 	0.5 	65.6806
1.26562 	-0.96875 	0.5 	65.4643
1.28125 	-0.96875 	0.5 	65.2321
1.29688 	-0.96875 	0.5 	65.0641
1.3125 	-0.96875 	0.5 	64.8856
1.32812 	-0.96875 	0.5 	64.7498
1.34375 	-0.96875 	0.5 	64.5636
1.35938 	-0.96875 	0.5 	64.3279
1.375 	-0.96875 	0.5 	64.1129
1.39062 	-0.96875 	0.5 	63.8942
1.40625 	-0.96875 	0.5 	63.6675
1.42188 	-0.96875 	0.5 	63.4382
1.4375 	-0.96875 	0.5 	63.2028
1.45312 	-0.96875 	0.5 	62.9178
1.46875 	-0.96875 	0.5 	62.7296
1.48438 	-0.96875 	0.5 	62.4927
-0.5 	-0.953125 	0.5 	68.5604
-0.484375 	-0.953125 	0.5 	68.6769
-0.46875 	-0.953125 	0.5 	68.8012
-0.453125 	-0.953125 	0.5 	68.9239
-0.4375 	-0.953125 	0.5 	69.0332
-0.421875 	-0.953125 	0.5 	69.136
-0.40625 	-0.953125 	0.5 	69.2329
-0.390625 	-0.953125 	0.5 	69.2873
-0.375 	-0.953125 	0.5 	69.3507
-0.359375 	-0.953125 	0.5 	69.4256
-0.34375 	-0.953125 	0.5 	69.5012
-0.328125 	-0.953125 	0.5 	69.5745
-0.3125 	-0.953125 	0.5 	69.5566
-0.296875 	-0.953125 	0.5 	69.509
-0.28125 	-0.953125 	0.5 	69.633
-0.265625 	-0.953125 	0.5 	69.6711
-0.25 	-0.953125 	0.5 	69.7453
-0.234375 	-0.953125 	0.5 	69.7241
-0.21875 	-0.953125 	0.5 	69.7311
-0.203125 	-0.953125 	0.5 	69.7155
-0.1875 	-0.953125 	0.5 	69.6642
-0.171875 	-0.953125 	0.5 	69.7069
-0.15625 	-0.953125 	0.5 	69.7034
-0.140625 	-0.953125 	0.5 	69.6849
-0.125 	-0.953125 	0.5 	69.6619
-0.109375 	-0.953125 	0.5 	69.6719
-0.09375 	-0.953125 	0.5 	69.6778
-0.078125 	-0.953125 	0.5 	69.599
-0.0625 	-0.953125 	0.5 	69.5688
-0.046875 	-0.953125 	0.5 	69.5608
-0.03125 	-0.953125 	0.5 	69.4699
-0.015625 	-0.953125 	0.5 	69.4072
0 	-0.953125 	0.5 	69.3667
0.015625 	-0.953125 	0.5 	69.3187
0.03125 	-0.953125 	0.5 	69.2807
0.046875 	-0.953125 	0.5 	69.2462
0.0625 	-0.953125 	0.5 	69.2091
0.078125 	-0.953125 	0.5 	69.184
0.09375 	-0.953125 	0.5 	69.1648
0.109375 	-0.953125 	0.5 	69.1035
0.125 	-0.953125 	0.5 	69.052
0.140625 	-0.953125 	0.5 	69.0043
0.15625 	-0.953125 	0.5 	68.9972
0.171875 	-0.953125 	0.5 	68.97
0.1875 	-0.953125 	0.5 	68.944
0.203125 	-0.953125 	0.5 	68.913
0.21875 	-0.953125 	0.5 	68.9429
0.234375 	-0.953125 	0.5 	68.9272
0.25 	-0.953125 	0.5 	68.9045
0.265625 	-0.953125 	0.5 	68.9135
0.28125 	-0.953125 	0.5 	68.9131
0.296875 	-0.953125 	0.5 	68.9134
0.3125 	-0.953125 	0.5 	68.9259
0.328125 	-0.953125 	0.5 	68.9379
0.34375 	-0.953125 	0.5 	68.9443
0.359375 	-0.953125 	0.5 	68.9487
0.375 	-0.953125 	0.5 	68.9432
0.390625 	-0.953125 	0.5 	68.9938
0.40625 	-0.953125 	0.5 	69.016
0.421875 	-0.953125 	0.5 	69.0409
0.4375 	-0.953125 	0.5 	69.0683
0.453125 	-0.953125 	0.5 	69.0905
0.46875 	-0.953125 	0.5 	69.1227
0.484375 	-0.953125 	0.5 	69.1595
0.5 	-0.953125 	0.5 	69.1899
0.515625 	-0.953125 	0.5 	69.2218
0.53125 	-0.953125 	0.5 	69.2578
0.546875 	-0.953125 	0.5 	69.2922
0.5625 	-0.953125 	0.5 	69.3332
0.578125 	-0.953125 	0.5 	69.3351
0.59375 	-0.953125 	0.5 	69.354
0.609375 	-0.953125 	0.5 	69.3785
0.625 	-0.953125 	0.5 	69.3906
0.640625 	-0.953125 	0.5 	69.4578
0.65625 	-0.953125 	0.5 	69.4626
0.671875 	-0.953125 	0.5 	69.4487
0.6875 	-0.953125 	0.5 	69.463
0.703125 	-0.953125 	0.5 	69.482
0.71875 	-0.953125 	0.5 	69.4367
0.734375 	-0.953125 	0.5 	69.4319
0.75 	-0.953125 	0.5 	69.3601
0.765625 	-0.953125 	0.5 	69.427
0.78125 	-0.953125 	0.5 	69.3452
0.796875 	-0.953125 	0.5 	69.2981
0.8125 	-0.953125 	0.5 	69.2486
0.828125 	-0.953125 	0.5 	69.2324
0.84375 	-0.953125 	0.5 	69.2053
0.859375 	-0.953125 	0.5 	69.2006
0.875 	-0.953125 	0.5 	69.1213
0.890625 	-0.953125 	0.5 	69.0855
0.90625 	-0.953125 	0.5 	69.021
0.921875 	-0.953125 	0.5 	68.9093
0.9375 	-0.953125 	0.5 	68.7598
0.953125 	-0.953125 	0.5 	68.6825
0.96875 	-0.953125 	0.5 	68.6078
0.984375 	-0.953125 	0.5 	68.5261
1 	-0.953125 	0.5 	68.3767
1.01562 	-0.953125 	0.5 	68.2641
1.03125 	-0.953125 	0.5 	68.1413
1.04688 	-0.953125 	0.5 	68.0406
1.0625 	-0.953125 	0.5 	67.9282
1.07812 	-0.953125 	0.5 	67.7791
1.09375 	-0.953125 	0.5 	67.5886
1.10938 	-0.953125 	0.5 	67.4215
1.125 	-0.953125 	0.5 	67.2673
1.14062 	-0.953125 	0.5 	67.1122
1.15625 	-0.953125 	0.5 	66.9547
1.17188 	-0.953125 	0.5 	66.7958
1.1875 	-0.953125 	0.5 	66.6369
1.20312 	-0.953125 	0.5 	66.4333
1.21875 	-0.953125 	0.5 	66.2081
1.23438 	-0.953125 	0.5 	66.045
1.25 	-0.953125 	0.5 	65.8396
1.26562 	-0.953125 	0.5 	65.6257
1.28125 	-0.953125 	0.5 	65.4132
1.29688 	-0.953125 	0.5 	65.2007
1.3125 	-0.953125 	0.5 	65.0115
1.32812 	-0.953125 	0.5 	64.8098
1.34375 	-0.953125 	0.5 	64.6102
1.35938 	-0.953125 	0.5 	64.4106
1.375 	-0.953125 	0.5 	64.222
1.39062 	-0.953125 	0.5 	63.9946
1.40625 	-0.953125 	0.5 	63.7686
1.42188 	-0.953125 	0.5 	63.5425
1.4375 	-0.953125 	0.5 	63.3327
1.45312 	-0.953125 	0.5 	63.0641
1.46875 	-0.953125 	0.5 	62.7926
1.48438 	-0.953125 	0.5 	62.619
-0.5 	-0.9375 	0.5 	68.7713
-0.484375 	-0.9375 	0.5 	68.88
-0.46875 	-0.9375 	0.5 	68.9961
-0.453125 	-0.9375 	0.5 	69.1177
-0.4375 	-0.9375 	0.5 	69.2825
-0.421875 	-0.9375 	0.5 	69.368
-0.40625 	-0.9375 	0.5 	69.4736
-0.390625 	-0.9375 	0.5 	69.5328
-0.375 	-0.9375 	0.5 	69.6064
-0.359375 	-0.9375 	0.5 	69.6494
-0.34375 	-0.9375 	0.5 	69.7354
-0.328125 	-0.9375 	0.5 	69.7753
-0.3125 	-0.9375 	0.5 	69.7948
-0.296875 	-0.9375 	0.5 	69.7952
-0.28125 	-0.9375 	0.5 	69.8363
-0.265625 	-0.9375 	0.5 	69.9009
-0.25 	-0.9375 	0.5 	69.9297
-0.234375 	-0.9375 	0.5 	69.9604
-0.21875 	-0.9375 	0.5 	69.947
-0.203125 	-0.9375 	0.5 	69.8966
-0.1875 	-0.9375 	0.5 	69.9233
-0.171875 	-0.9375 	0.5 	69.94
-0.15625 	-0.9375 	0.5 	69.9798
-0.140625 	-0.9375 	0.5 	69.9101
-0.125 	-0.9375 	0.5 	69.8598
-0.109375 	-0.9375 	0.5 	69.8332
-0.09375 	-0.9375 	0.5 	69.8093
-0.078125 	-0.9375 	0.5 	69.7791
-0.0625 	-0.9375 	0.5 	69.7025
-0.046875 	-0.9375 	0.5 	69.6745
-0.03125 	-0.9375 	0.5 	69.6228
-0.015625 	-0.9375 	0.5 	69.576
0 	-0.9375 	0.5 	69.5566
0.015625 	-0.9375 	0.5 	69.4712
0.03125 	-0.9375 	0.5 	69.3971
0.046875 	-0.9375 	0.5 	69.3541
0.0625 	-0.9375 	0.5 	69.3389
0.078125 	-0.9375 	0.5 	69.2904
0.09375 	-0.9375 	0.5 	69.2574
0.109375 	-0.9375 	0.5 	69.2047
0.125 	-0.9375 	0.5 	69.1715
0.140625 	-0.9375 	0.5 	69.1398
0.15625 	-0.9375 	0.5 	69.1134
0.171875 	-0.9375 	0.5 	69.0708
0.1875 	-0.9375 	0.5 	69.0326
0.203125 	-0.9375 	0.5 	69.0356
0.21875 	-0.9375 	0.5 	69.0421
0.234375 	-0.9375 	0.5 	69.0275
0.25 	-0.9375 	0.5 	69.0155
0.265625 	-0.9375 	0.5 	69.0144
0.28125 	-0.9375 	0.5 	68.9996
0.296875 	-0.9375 	0.5 	69.0031
0.3125 	-0.9375 	0.5 	69.0128
0.328125 	-0.9375 	0.5 	69.0335
0.34375 	-0.9375 	0.5 	69.0281
0.359375 	-0.9375 	0.5 	69.0421
0.375 	-0.9375 	0.5 	69.0753
0.390625 	-0.9375 	0.5 	69.1134
0.40625 	-0.9375 	0.5 	69.1366
0.421875 	-0.9375 	0.5 	69.1618
0.4375 	-0.9375 	0.5 	69.1885
0.453125 	-0.9375 	0.5 	69.2301
0.46875 	-0.9375 	0.5 	69.2619
0.484375 	-0.9375 	0.5 	69.2935
0.5 	-0.9375 	0.5 	69.3437
0.515625 	-0.9375 	0.5 	69.369
0.53125 	-0.9375 	0.5 	69.4599
0.546875 	-0.9375 	0.5 	69.475
0.5625 	-0.9375 	0.5 	69.4956
0.578125 	-0.9375 	0.5 	69.5232
0.59375 	-0.9375 	0.5 	69.5281
0.609375 	-0.9375 	0.5 	69.5413
0.625 	-0.9375 	0.5 	69.5828
0.640625 	-0.9375 	0.5 	69.618
0.65625 	-0.9375 	0.5 	69.6498
0.671875 	-0.9375 	0.5 	69.6498
0.6875 	-0.9375 	0.5 	69.6526
0.703125 	-0.9375 	0.5 	69.6773
0.71875 	-0.9375 	0.5 	69.6772
0.734375 	-0.9375 	0.5 	69.6452
0.75 	-0.9375 	0.5 	69.6485
0.765625 	-0.9375 	0.5 	69.6557
0.78125 	-0.9375 	0.5 	69.6892
0.796875 	-0.9375 	0.5 	69.604
0.8125 	-0.9375 	0.5 	69.5543
0.828125 	-0.9375 	0.5 	69.4968
0.84375 	-0.9375 	0.5 	69.4435
0.859375 	-0.9375 	0.5 	69.4248
0.875 	-0.9375 	0.5 	69.3951
0.890625 	-0.9375 	0.5 	69.3405
0.90625 	-0.9375 	0.5 	69.2429
0.921875 	-0.9375 	0.5 	69.1519
0.9375 	-0.9375 	0.5 	69.0079
0.953125 	-0.9375 	0.5 	68.8963
0.96875 	-0.9375 	0.5 	68.8069
0.984375 	-0.9375 	0.5 	68.7083
1 	-0.9375 	0.5 	68.6088
1.01562 	-0.9375 	0.5 	68.4793
1.03125 	-0.9375 	0.5 	68.364
1.04688 	-0.9375 	0.5 	68.2552
1.0625 	-0.9375 	0.5 	68.1515
1.07812 	-0.9375 	0.5 	67.9652
1.09375 	-0.9375 	0.5 	67.7684
1.10938 	-0.9375 	0.5 	67.5917
1.125 	-0.9375 	0.5 	67.4533
1.14062 	-0.9375 	0.5 	67.3352
1.15625 	-0.9375 	0.5 	67.1337
1.17188 	-0.9375 	0.5 	66.9674
1.1875 	-0.9375 	0.5 	66.8083
1.20312 	-0.9375 	0.5 	66.6387
1.21875 	-0.9375 	0.5 	66.3981
1.23438 	-0.9375 	0.5 	66.2065
1.25 	-0.9375 	0.5 	66
1.26562 	-0.9375 	0.5 	65.7875
1.28125 	-0.9375 	0.5 	65.5948
1.29688 	-0.9375 	0.5 	65.3533
1.3125 	-0.9375 	0.5 	65.1362
1.32812 	-0.9375 	0.5 	64.9049
1.34375 	-0.9375 	0.5 	64.6809
1.35938 	-0.9375 	0.5 	64.5277
1.375 	-0.9375 	0.5 	64.3323
1.39062 	-0.9375 	0.5 	64.0995
1.40625 	-0.9375 	0.5 	63.8748
1.42188 	-0.9375 	0.5 	63.6485
1.4375 	-0.9375 	0.5 	63.4641
1.45312 	-0.9375 	0.5 	63.2408
1.46875 	-0.9375 	0.5 	62.9744
1.48438 	-0.9375 	0.5 	62.7059
-0.5 	-0.921875 	0.5 	69.0067
-0.484375 	-0.921875 	0.5 	69.1013
-0.46875 	-0.921875 	0.5 	69.223
-0.453125 	-0.921875 	0.5 	69.3447
-0.4375 	-0.921875 	0.5 	69.531
-0.421875 	-0.921875 	0.5 	69.6597
-0.40625 	-0.921875 	0.5 	69.7191
-0.390625 	-0.921875 	0.5 	69.781
-0.375 	-0.921875 	0.5 	69.8176
-0.359375 	-0.921875 	0.5 	69.882
-0.34375 	-0.921875 	0.5 	69.9861
-0.328125 	-0.921875 	0.5 	70.0297
-0.3125 	-0.921875 	0.5 	70.0647
-0.296875 	-0.921875 	0.5 	70.1388
-0.28125 	-0.921875 	0.5 	70.1769
-0.265625 	-0.921875 	0.5 	70.1643
-0.25 	-0.921875 	0.5 	70.1309
-0.234375 	-0.921875 	0.5 	70.1429
-0.21875 	-0.921875 	0.5 	70.1515
-0.203125 	-0.921875 	0.5 	70.1015
-0.1875 	-0.921875 	0.5 	70.1306
-0.171875 	-0.921875 	0.5 	70.1732
-0.15625 	-0.921875 	0.5 	70.1436
-0.140625 	-0.921875 	0.5 	70.1085
-0.125 	-0.921875 	0.5 	70.0587
-0.109375 	-0.921875 	0.5 	70.012
-0.09375 	-0.921875 	0.5 	69.9902
-0.078125 	-0.921875 	0.5 	69.9117
-0.0625 	-0.921875 	0.5 	69.8645
-0.046875 	-0.921875 	0.5 	69.7768
-0.03125 	-0.921875 	0.5 	69.7853
-0.015625 	-0.921875 	0.5 	69.7277
0 	-0.921875 	0.5 	69.7016
0.015625 	-0.921875 	0.5 	69.6225
0.03125 	-0.921875 	0.5 	69.5467
0.046875 	-0.921875 	0.5 	69.5018
0.0625 	-0.921875 	0.5 	69.4714
0.078125 	-0.921875 	0.5 	69.4136
0.09375 	-0.921875 	0.5 	69.3736
0.109375 	-0.921875 	0.5 	69.3161
0.125 	-0.921875 	0.5 	69.2885
0.140625 	-0.921875 	0.5 	69.2572
0.15625 	-0.921875 	0.5 	69.2245
0.171875 	-0.921875 	0.5 	69.1932
0.1875 	-0.921875 	0.5 	69.1788
0.203125 	-0.921875 	0.5 	69.1433
0.21875 	-0.921875 	0.5 	69.124
0.234375 	-0.921875 	0.5 	69.1152
0.25 	-0.921875 	0.5 	69.107
0.265625 	-0.921875 	0.5 	69.0966
0.28125 	-0.921875 	0.5 	69.0935
0.296875 	-0.921875 	0.5 	69.095
0.3125 	-0.921875 	0.5 	69.108
0.328125 	-0.921875 	0.5 	69.1308
0.34375 	-0.921875 	0.5 	69.1413
0.359375 	-0.921875 	0.5 	69.1507
0.375 	-0.921875 	0.5 	69.1674
0.390625 	-0.921875 	0.5 	69.2145
0.40625 	-0.921875 	0.5 	69.259
0.421875 	-0.921875 	0.5 	69.2834
0.4375 	-0.921875 	0.5 	69.3046
0.453125 	-0.921875 	0.5 	69.3526
0.46875 	-0.921875 	0.5 	69.3952
0.484375 	-0.921875 	0.5 	69.4244
0.5 	-0.921875 	0.5 	69.4754
0.515625 	-0.921875 	0.5 	69.5118
0.53125 	-0.921875 	0.5 	69.5673
0.546875 	-0.921875 	0.5 	69.6012
0.5625 	-0.921875 	0.5 	69.6564
0.578125 	-0.921875 	0.5 	69.6742
0.59375 	-0.921875 	0.5 	69.7129
0.609375 	-0.921875 	0.5 	69.7469
0.625 	-0.921875 	0.5 	69.7779
0.640625 	-0.921875 	0.5 	69.8355
0.65625 	-0.921875 	0.5 	69.842
0.671875 	-0.921875 	0.5 	69.8531
0.6875 	-0.921875 	0.5 	69.8465
0.703125 	-0.921875 	0.5 	69.8695
0.71875 	-0.921875 	0.5 	69.8991
0.734375 	-0.921875 	0.5 	69.8709
0.75 	-0.921875 	0.5 	69.8789
0.765625 	-0.921875 	0.5 	69.8854
0.78125 	-0.921875 	0.5 	69.9764
0.796875 	-0.921875 	0.5 	69.8479
0.8125 	-0.921875 	0.5 	69.7983
0.828125 	-0.921875 	0.5 	69.7722
0.84375 	-0.921875 	0.5 	69.7234
0.859375 	-0.921875 	0.5 	69.6714
0.875 	-0.921875 	0.5 	69.6054
0.890625 	-0.921875 	0.5 	69.5344
0.90625 	-0.921875 	0.5 	69.4661
0.921875 	-0.921875 	0.5 	69.3586
0.9375 	-0.921875 	0.5 	69.2563
0.953125 	-0.921875 	0.5 	69.1299
0.96875 	-0.921875 	0.5 	69.0515
0.984375 	-0.921875 	0.5 	68.9705
1 	-0.921875 	0.5 	68.8169
1.01562 	-0.921875 	0.5 	68.7075
1.03125 	-0.921875 	0.5 	68.5867
1.04688 	-0.921875 	0.5 	68.4867
1.0625 	-0.921875 	0.5 	68.3536
1.07812 	-0.921875 	0.5 	68.1462
1.09375 	-0.921875 	0.5 	67.9201
1.10938 	-0.921875 	0.5 	67.8317
1.125 	-0.921875 	0.5 	67.6914
1.14062 	-0.921875 	0.5 	67.5589
1.15625 	-0.921875 	0.5 	67.3425
1.17188 	-0.921875 	0.5 	67.1556
1.1875 	-0.921875 	0.5 	67.0176
1.20312 	-0.921875 	0.5 	66.8402
1.21875 	-0.921875 	0.5 	66.6037
1.23438 	-0.921875 	0.5 	66.3741
1.25 	-0.921875 	0.5 	66.177
1.26562 	-0.921875 	0.5 	65.9856
1.28125 	-0.921875 	0.5 	65.7509
1.29688 	-0.921875 	0.5 	65.4912
1.3125 	-0.921875 	0.5 	65.2535
1.32812 	-0.921875 	0.5 	65.0768
1.34375 	-0.921875 	0.5 	64.8438
1.35938 	-0.921875 	0.5 	64.6807
1.375 	-0.921875 	0.5 	64.4427
1.39062 	-0.921875 	0.5 	64.2015
1.40625 	-0.921875 	0.5 	63.9796
1.42188 	-0.921875 	0.5 	63.7549
1.4375 	-0.921875 	0.5 	63.5517
1.45312 	-0.921875 	0.5 	63.2987
1.46875 	-0.921875 	0.5 	63.056
1.48438 	-0.921875 	0.5 	62.8172
-0.5 	-0.90625 	0.5 	69.2266
-0.484375 	-0.90625 	0.5 	69.2905
-0.46875 	-0.90625 	0.5 	69.466
-0.453125 	-0.90625 	0.5 	69.5859
-0.4375 	-0.90625 	0.5 	69.7678
-0.421875 	-0.90625 	0.5 	69.8198
-0.40625 	-0.90625 	0.5 	69.9285
-0.390625 	-0.90625 	0.5 	70.0602
-0.375 	-0.90625 	0.5 	70.0957
-0.359375 	-0.90625 	0.5 	70.1311
-0.34375 	-0.90625 	0.5 	70.2246
-0.328125 	-0.90625 	0.5 	70.2657
-0.3125 	-0.90625 	0.5 	70.3206
-0.296875 	-0.90625 	0.5 	70.3783
-0.28125 	-0.90625 	0.5 	70.3879
-0.265625 	-0.90625 	0.5 	70.4372
-0.25 	-0.90625 	0.5 	70.3873
-0.234375 	-0.90625 	0.5 	70.3492
-0.21875 	-0.90625 	0.5 	70.3353
-0.203125 	-0.90625 	0.5 	70.3509
-0.1875 	-0.90625 	0.5 	70.4079
-0.171875 	-0.90625 	0.5 	70.4173
-0.15625 	-0.90625 	0.5 	70.3581
-0.140625 	-0.90625 	0.5 	70.3253
-0.125 	-0.90625 	0.5 	70.2679
-0.109375 	-0.90625 	0.5 	70.2011
-0.09375 	-0.90625 	0.5 	70.1558
-0.078125 	-0.90625 	0.5 	70.0541
-0.0625 	-0.90625 	0.5 	70.0283
-0.046875 	-0.90625 	0.5 	69.9794
-0.03125 	-0.90625 	0.5 	69.9619
-0.015625 	-0.90625 	0.5 	69.8646
0 	-0.90625 	0.5 	69.8451
0.015625 	-0.90625 	0.5 	69.7673
0.03125 	-0.90625 	0.5 	69.6845
0.046875 	-0.90625 	0.5 	69.6715
0.0625 	-0.90625 	0.5 	69.6112
0.078125 	-0.90625 	0.5 	69.5525
0.09375 	-0.90625 	0.5 	69.4897
0.109375 	-0.90625 	0.5 	69.4327
0.125 	-0.90625 	0.5 	69.3989
0.140625 	-0.90625 	0.5 	69.3592
0.15625 	-0.90625 	0.5 	69.3225
0.171875 	-0.90625 	0.5 	69.2865
0.1875 	-0.90625 	0.5 	69.2605
0.203125 	-0.90625 	0.5 	69.2356
0.21875 	-0.90625 	0.5 	69.2072
0.234375 	-0.90625 	0.5 	69.1986
0.25 	-0.90625 	0.5 	69.2013
0.265625 	-0.90625 	0.5 	69.1835
0.28125 	-0.90625 	0.5 	69.1808
0.296875 	-0.90625 	0.5 	69.1872
0.3125 	-0.90625 	0.5 	69.1932
0.328125 	-0.90625 	0.5 	69.2074
0.34375 	-0.90625 	0.5 	69.2295
0.359375 	-0.90625 	0.5 	69.2542
0.375 	-0.90625 	0.5 	69.2717
0.390625 	-0.90625 	0.5 	69.2904
0.40625 	-0.90625 	0.5 	69.3418
0.421875 	-0.90625 	0.5 	69.4077
0.4375 	-0.90625 	0.5 	69.4453
0.453125 	-0.90625 	0.5 	69.4882
0.46875 	-0.90625 	0.5 	69.5342
0.484375 	-0.90625 	0.5 	69.5803
0.5 	-0.90625 	0.5 	69.6199
0.515625 	-0.90625 	0.5 	69.6569
0.53125 	-0.90625 	0.5 	69.7082
0.546875 	-0.90625 	0.5 	69.7554
0.5625 	-0.90625 	0.5 	69.8112
0.578125 	-0.90625 	0.5 	69.8442
0.59375 	-0.90625 	0.5 	69.9222
0.609375 	-0.90625 	0.5 	69.9407
0.625 	-0.90625 	0.5 	69.9677
0.640625 	-0.90625 	0.5 	69.9969
0.65625 	-0.90625 	0.5 	70.0312
0.671875 	-0.90625 	0.5 	70.0694
0.6875 	-0.90625 	0.5 	70.0909
0.703125 	-0.90625 	0.5 	70.0903
0.71875 	-0.90625 	0.5 	70.0948
0.734375 	-0.90625 	0.5 	70.095
0.75 	-0.90625 	0.5 	70.0968
0.765625 	-0.90625 	0.5 	70.1105
0.78125 	-0.90625 	0.5 	70.0786
0.796875 	-0.90625 	0.5 	70.0914
0.8125 	-0.90625 	0.5 	70.0356
0.828125 	-0.90625 	0.5 	69.9998
0.84375 	-0.90625 	0.5 	69.9353
0.859375 	-0.90625 	0.5 	69.921
0.875 	-0.90625 	0.5 	69.8323
0.890625 	-0.90625 	0.5 	69.7539
0.90625 	-0.90625 	0.5 	69.6936
0.921875 	-0.90625 	0.5 	69.593
0.9375 	-0.90625 	0.5 	69.479
0.953125 	-0.90625 	0.5 	69.381
0.96875 	-0.90625 	0.5 	69.322
0.984375 	-0.90625 	0.5 	69.246
1 	-0.90625 	0.5 	69.0797
1.01562 	-0.90625 	0.5 	68.9064
1.03125 	-0.90625 	0.5 	68.8094
1.04688 	-0.90625 	0.5 	68.6922
1.0625 	-0.90625 	0.5 	68.5666
1.07812 	-0.90625 	0.5 	68.4316
1.09375 	-0.90625 	0.5 	68.2445
1.10938 	-0.90625 	0.5 	68.0504
1.125 	-0.90625 	0.5 	67.8922
1.14062 	-0.90625 	0.5 	67.711
1.15625 	-0.90625 	0.5 	67.5297
1.17188 	-0.90625 	0.5 	67.3442
1.1875 	-0.90625 	0.5 	67.1456
1.20312 	-0.90625 	0.5 	66.9436
1.21875 	-0.90625 	0.5 	66.7417
1.23438 	-0.90625 	0.5 	66.5489
1.25 	-0.90625 	0.5 	66.334
1.26562 	-0.90625 	0.5 	66.1003
1.28125 	-0.90625 	0.5 	65.8811
1.29688 	-0.90625 	0.5 	65.6448
1.3125 	-0.90625 	0.5 	65.4272
1.32812 	-0.90625 	0.5 	65.2096
1.34375 	-0.90625 	0.5 	65.0174
1.35938 	-0.90625 	0.5 	64.8132
1.375 	-0.90625 	0.5 	64.5721
1.39062 	-0.90625 	0.5 	64.3387
1.40625 	-0.90625 	0.5 	64.0897
1.42188 	-0.90625 	0.5 	63.8525
1.4375 	-0.90625 	0.5 	63.6153
1.45312 	-0.90625 	0.5 	63.3788
1.46875 	-0.90625 	0.5 	63.1386
1.48438 	-0.90625 	0.5 	62.8726
-0.5 	-0.890625 	0.5 	69.4439
-0.484375 	-0.890625 	0.5 	69.5662
-0.46875 	-0.890625 	0.5 	69.6965
-0.453125 	-0.890625 	0.5 	69.8306
-0.4375 	-0.890625 	0.5 	69.9427
-0.421875 	-0.890625 	0.5 	70.0534
-0.40625 	-0.890625 	0.5 	70.1751
-0.390625 	-0.890625 	0.5 	70.3109
-0.375 	-0.890625 	0.5 	70.4037
-0.359375 	-0.890625 	0.5 	70.4266
-0.34375 	-0.890625 	0.5 	70.4631
-0.328125 	-0.890625 	0.5 	70.5143
-0.3125 	-0.890625 	0.5 	70.5627
-0.296875 	-0.890625 	0.5 	70.6059
-0.28125 	-0.890625 	0.5 	70.6487
-0.265625 	-0.890625 	0.5 	70.667
-0.25 	-0.890625 	0.5 	70.6515
-0.234375 	-0.890625 	0.5 	70.6159
-0.21875 	-0.890625 	0.5 	70.5533
-0.203125 	-0.890625 	0.5 	70.618
-0.1875 	-0.890625 	0.5 	70.6961
-0.171875 	-0.890625 	0.5 	70.6677
-0.15625 	-0.890625 	0.5 	70.6162
-0.140625 	-0.890625 	0.5 	70.5303
-0.125 	-0.890625 	0.5 	70.4772
-0.109375 	-0.890625 	0.5 	70.413
-0.09375 	-0.890625 	0.5 	70.3522
-0.078125 	-0.890625 	0.5 	70.309
-0.0625 	-0.890625 	0.5 	70.2041
-0.046875 	-0.890625 	0.5 	70.1555
-0.03125 	-0.890625 	0.5 	70.1273
-0.015625 	-0.890625 	0.5 	70.0697
0 	-0.890625 	0.5 	69.9669
0.015625 	-0.890625 	0.5 	69.89
0.03125 	-0.890625 	0.5 	69.8456
0.046875 	-0.890625 	0.5 	69.8014
0.0625 	-0.890625 	0.5 	69.7503
0.078125 	-0.890625 	0.5 	69.6701
0.09375 	-0.890625 	0.5 	69.6117
0.109375 	-0.890625 	0.5 	69.551
0.125 	-0.890625 	0.5 	69.5056
0.140625 	-0.890625 	0.5 	69.4587
0.15625 	-0.890625 	0.5 	69.4208
0.171875 	-0.890625 	0.5 	69.3792
0.1875 	-0.890625 	0.5 	69.3415
0.203125 	-0.890625 	0.5 	69.3204
0.21875 	-0.890625 	0.5 	69.2924
0.234375 	-0.890625 	0.5 	69.2932
0.25 	-0.890625 	0.5 	69.2898
0.265625 	-0.890625 	0.5 	69.2708
0.28125 	-0.890625 	0.5 	69.2736
0.296875 	-0.890625 	0.5 	69.2667
0.3125 	-0.890625 	0.5 	69.2724
0.328125 	-0.890625 	0.5 	69.2965