-0.5 	-1 	0.5 	39.6116 	0.142544 	4.71466e-20
-0.484375 	-1 	0.5 	39.6102 	0.138734 	2.25458e-20
-0.46875 	-1 	0.5 	39.6085 	0.134905 	4.72278e-20
-0.453125 	-1 	0.5 	39.6067 	0.131309 	1.09287e-19
-0.4375 	-1 	0.5 	39.6052 	0.127525 	4.51949e-20
-0.421875 	-1 	0.5 	39.6034 	0.123877 	7.67994e-20
-0.40625 	-1 	0.5 	39.6017 	0.119788 	7.02267e-20
-0.390625 	-1 	0.5 	39.601 	0.115608 	-4.21171e-19
-0.375 	-1 	0.5 	39.6007 	0.11114 	-2.67655e-18
-0.359375 	-1 	0.5 	39.6002 	0.107315 	-6.83333e-19
-0.34375 	-1 	0.5 	39.5989 	0.103445 	9.10398e-19
-0.328125 	-1 	0.5 	39.5988 	0.099437 	2.8725e-20
-0.3125 	-1 	0.5 	39.5981 	0.0957026 	-6.59736e-19
-0.296875 	-1 	0.5 	39.598 	0.0921978 	-2.39177e-19
-0.28125 	-1 	0.5 	39.5979 	0.0881464 	4.06638e-19
-0.265625 	-1 	0.5 	39.5978 	0.0842533 	5.44562e-19
-0.25 	-1 	0.5 	39.5973 	0.0803491 	5.05303e-20
-0.234375 	-1 	0.5 	39.5975 	0.0767251 	3.56003e-21
-0.21875 	-1 	0.5 	39.5985 	0.0733658 	-8.55289e-21
-0.203125 	-1 	0.5 	39.599 	0.0696689 	-8.92115e-20
-0.1875 	-1 	0.5 	39.5996 	0.0663354 	-6.70988e-21
-0.171875 	-1 	0.5 	39.6001 	0.0627142 	-7.9576e-21
-0.15625 	-1 	0.5 	39.6008 	0.0594065 	-2.5259e-19
-0.140625 	-1 	0.5 	39.6015 	0.0559941 	1.28568e-19
-0.125 	-1 	0.5 	39.6023 	0.0525117 	1.86661e-19
-0.109375 	-1 	0.5 	39.6036 	0.0494093 	7.87298e-20
-0.09375 	-1 	0.5 	39.6048 	0.0463864 	-2.16395e-19
-0.078125 	-1 	0.5 	39.6062 	0.0435038 	-4.98384e-19
-0.0625 	-1 	0.5 	39.6076 	0.0409434 	-6.44684e-21
-0.046875 	-1 	0.5 	39.6093 	0.037955 	7.67915e-19
-0.03125 	-1 	0.5 	39.6105 	0.0353141 	7.16735e-19
-0.015625 	-1 	0.5 	39.6116 	0.0332135 	-1.37827e-18
0 	-1 	0.5 	39.6128 	0.0310022 	-4.15388e-19
0.015625 	-1 	0.5 	39.6143 	0.0287517 	-1.68224e-19
0.03125 	-1 	0.5 	39.6156 	0.0265551 	-6.45971e-19
0.046875 	-1 	0.5 	39.6171 	0.0245955 	-4.91621e-19
0.0625 	-1 	0.5 	39.619 	0.0229149 	2.07224e-19
0.078125 	-1 	0.5 	39.6205 	0.0213229 	8.5362e-19
0.09375 	-1 	0.5 	39.6218 	0.0196417 	2.74408e-18
0.109375 	-1 	0.5 	39.6236 	0.0185166 	1.65449e-18
0.125 	-1 	0.5 	39.6249 	0.0175419 	6.20238e-19
0.140625 	-1 	0.5 	39.6264 	0.016242 	1.19191e-19
0.15625 	-1 	0.5 	39.6273 	0.0149125 	-1.41961e-19
0.171875 	-1 	0.5 	39.6284 	0.0139703 	-4.17681e-20
0.1875 	-1 	0.5 	39.6297 	0.0131512 	-2.19364e-20
0.203125 	-1 	0.5 	39.6308 	0.0126104 	-1.7381e-19
0.21875 	-1 	0.5 	39.6318 	0.0120419 	2.70349e-19
0.234375 	-1 	0.5 	39.6326 	0.0114001 	3.27795e-19
0.25 	-1 	0.5 	39.6332 	0.0108909 	3.1544e-19
0.265625 	-1 	0.5 	39.6338 	0.0103561 	-1.60446e-19
0.28125 	-1 	0.5 	39.6343 	0.0100201 	4.65623e-19
0.296875 	-1 	0.5 	39.6348 	0.00980992 	-3.43814e-20
0.3125 	-1 	0.5 	39.635 	0.00931843 	-5.41749e-21
0.328125 	-1 	0.5 	39.6352 	0.00918579 	3.88943e-19
0.34375 	-1 	0.5 	39.6352 	0.00906673 	-1.19942e-19
0.359375 	-1 	0.5 	39.6352 	0.00867554 	-3.72691e-19
0.375 	-1 	0.5 	39.635 	0.008527 	5.72059e-19
0.390625 	-1 	0.5 	39.6346 	0.00827897 	-5.64479e-19
0.40625 	-1 	0.5 	39.6341 	0.00791279 	6.46191e-21
0.421875 	-1 	0.5 	39.6334 	0.0076318 	1.05804e-20
0.4375 	-1 	0.5 	39.6327 	0.00718919 	1.60833e-20
0.453125 	-1 	0.5 	39.6319 	0.00682572 	-2.95756e-22
0.46875 	-1 	0.5 	39.6309 	0.00648079 	4.26343e-20
0.484375 	-1 	0.5 	39.6298 	0.00567878 	4.21982e-20
0.5 	-1 	0.5 	39.6285 	0.00523909 	5.10418e-19
0.515625 	-1 	0.5 	39.6274 	0.00457575 	1.34606e-21
0.53125 	-1 	0.5 	39.6259 	0.00330075 	-4.67485e-19
0.546875 	-1 	0.5 	39.6245 	0.00247862 	3.51364e-20
0.5625 	-1 	0.5 	39.623 	0.00155654 	1.39516e-19
0.578125 	-1 	0.5 	39.6211 	0.000508153 	4.37381e-20
0.59375 	-1 	0.5 	39.6194 	-0.00070659 	-3.41228e-19
0.609375 	-1 	0.5 	39.618 	-0.00251182 	-3.57966e-19
0.625 	-1 	0.5 	39.6163 	-0.00386769 	2.45079e-20
0.640625 	-1 	0.5 	39.6145 	-0.00581685 	1.06709e-19
0.65625 	-1 	0.5 	39.6126 	-0.00771645 	6.24848e-20
0.671875 	-1 	0.5 	39.6108 	-0.0101355 	2.65848e-19
0.6875 	-1 	0.5 	39.6092 	-0.0123443 	3.47753e-19
0.703125 	-1 	0.5 	39.6076 	-0.0141265 	6.04543e-20
0.71875 	-1 	0.5 	39.6057 	-0.0169111 	8.90216e-20
0.734375 	-1 	0.5 	39.6041 	-0.0195577 	-3.23722e-22
0.75 	-1 	0.5 	39.6024 	-0.0222364 	-9.6662e-22
0.765625 	-1 	0.5 	39.6005 	-0.0248793 	5.18746e-20
0.78125 	-1 	0.5 	39.5985 	-0.0284618 	3.84727e-20
0.796875 	-1 	0.5 	39.5974 	-0.030722 	1.89007e-19
0.8125 	-1 	0.5 	39.5959 	-0.0336799 	1.5556e-19
0.828125 	-1 	0.5 	39.5944 	-0.0370923 	3.03271e-19
0.84375 	-1 	0.5 	39.5932 	-0.0412823 	2.5531e-19
0.859375 	-1 	0.5 	39.5922 	-0.0446481 	2.22237e-20
0.875 	-1 	0.5 	39.5911 	-0.0483896 	-1.21921e-18
0.890625 	-1 	0.5 	39.5899 	-0.0520112 	6.62458e-19
0.90625 	-1 	0.5 	39.5891 	-0.0557251 	7.91643e-19
0.921875 	-1 	0.5 	39.5883 	-0.0598103 	-4.74076e-20
0.9375 	-1 	0.5 	39.5876 	-0.0637236 	4.00236e-19
0.953125 	-1 	0.5 	39.5865 	-0.0688534 	2.44399e-19
0.96875 	-1 	0.5 	39.586 	-0.0735331 	1.48171e-19
0.984375 	-1 	0.5 	39.5864 	-0.0775778 	1.48311e-19
1 	-1 	0.5 	39.5868 	-0.0816225 	1.48451e-19
1.01562 	-1 	0.5 	39.5872 	-0.0861852 	6.66973e-20
1.03125 	-1 	0.5 	39.5869 	-0.0907192 	-2.44712e-20
1.04688 	-1 	0.5 	39.5872 	-0.0950309 	-1.76089e-19
1.0625 	-1 	0.5 	39.5878 	-0.099991 	-5.18818e-19
1.07812 	-1 	0.5 	39.5886 	-0.104154 	-9.62822e-20
1.09375 	-1 	0.5 	39.5891 	-0.108595 	1.26146e-19
1.10938 	-1 	0.5 	39.5902 	-0.112744 	6.56249e-20
1.125 	-1 	0.5 	39.5913 	-0.117379 	9.92717e-20
1.14062 	-1 	0.5 	39.5924 	-0.122308 	1.57679e-19
1.15625 	-1 	0.5 	39.5937 	-0.126572 	1.83174e-19
1.17188 	-1 	0.5 	39.5951 	-0.131272 	5.40905e-19
1.1875 	-1 	0.5 	39.5964 	-0.135605 	1.96416e-19
1.20312 	-1 	0.5 	39.5979 	-0.139755 	7.61846e-20
1.21875 	-1 	0.5 	39.5999 	-0.144884 	-2.89926e-19
1.23438 	-1 	0.5 	39.6019 	-0.149899 	-7.49441e-19
1.25 	-1 	0.5 	39.6045 	-0.154026 	-5.16064e-19
1.26562 	-1 	0.5 	39.6073 	-0.15809 	-4.44769e-19
1.28125 	-1 	0.5 	39.6101 	-0.16213 	-8.75153e-20
1.29688 	-1 	0.5 	39.612 	-0.165919 	1.38608e-18
1.3125 	-1 	0.5 	39.6133 	-0.169419 	2.90653e-18
1.32812 	-1 	0.5 	39.6167 	-0.172645 	4.82075e-19
1.34375 	-1 	0.5 	39.6197 	-0.175784 	-1.40987e-18
1.35938 	-1 	0.5 	39.6235 	-0.179989 	1.35081e-19
1.375 	-1 	0.5 	39.6271 	-0.183724 	3.23875e-19
1.39062 	-1 	0.5 	39.6304 	-0.187487 	1.83108e-19
1.40625 	-1 	0.5 	39.6335 	-0.191378 	5.64464e-19
1.42188 	-1 	0.5 	39.6369 	-0.195029 	9.01511e-19
1.4375 	-1 	0.5 	39.6402 	-0.198394 	1.07193e-19
1.45312 	-1 	0.5 	39.6433 	-0.201851 	-1.21635e-20
1.46875 	-1 	0.5 	39.6466 	-0.205438 	-2.89422e-20
1.48438 	-1 	0.5 	39.6503 	-0.2078 	-2.14485e-19
-0.5 	-0.984375 	0.5 	39.6074 	0.14437 	6.09709e-20
-0.484375 	-0.984375 	0.5 	39.6057 	0.140561 	8.94617e-20
-0.46875 	-0.984375 	0.5 	39.6039 	0.1368 	1.27205e-19
-0.453125 	-0.984375 	0.5 	39.6021 	0.13305 	2.18713e-19
-0.4375 	-0.984375 	0.5 	39.6005 	0.129091 	4.20924e-19
-0.421875 	-0.984375 	0.5 	39.5989 	0.12516 	6.75804e-19
-0.40625 	-0.984375 	0.5 	39.597 	0.120869 	2.27664e-19
-0.390625 	-0.984375 	0.5 	39.5964 	0.116758 	7.6158e-19
-0.375 	-0.984375 	0.5 	39.5954 	0.11265 	2.24803e-19
-0.359375 	-0.984375 	0.5 	39.595 	0.108442 	-3.13034e-19
-0.34375 	-0.984375 	0.5 	39.5939 	0.104554 	9.18378e-19
-0.328125 	-0.984375 	0.5 	39.5938 	0.100553 	1.83423e-19
-0.3125 	-0.984375 	0.5 	39.5932 	0.0964518 	-5.33314e-19
-0.296875 	-0.984375 	0.5 	39.5932 	0.0919047 	-1.99948e-19
-0.28125 	-0.984375 	0.5 	39.593 	0.087934 	5.67182e-19
-0.265625 	-0.984375 	0.5 	39.5929 	0.0840727 	5.96353e-19
-0.25 	-0.984375 	0.5 	39.5925 	0.0802016 	4.36534e-20
-0.234375 	-0.984375 	0.5 	39.5933 	0.0768291 	2.79871e-20
-0.21875 	-0.984375 	0.5 	39.5937 	0.0724719 	-8.16346e-20
-0.203125 	-0.984375 	0.5 	39.5943 	0.0689435 	-2.31637e-19
-0.1875 	-0.984375 	0.5 	39.5949 	0.0657965 	-9.94272e-20
-0.171875 	-0.984375 	0.5 	39.5956 	0.0618463 	-3.49854e-19
-0.15625 	-0.984375 	0.5 	39.5963 	0.0583162 	8.85423e-19
-0.140625 	-0.984375 	0.5 	39.5971 	0.0548826 	1.14788e-18
-0.125 	-0.984375 	0.5 	39.5984 	0.0511425 	-6.94308e-19
-0.109375 	-0.984375 	0.5 	39.5996 	0.0481598 	-6.56756e-20
-0.09375 	-0.984375 	0.5 	39.6009 	0.0450239 	1.34392e-20
-0.078125 	-0.984375 	0.5 	39.6024 	0.0424032 	-1.69445e-18
-0.0625 	-0.984375 	0.5 	39.6046 	0.0394764 	1.21537e-19
-0.046875 	-0.984375 	0.5 	39.6061 	0.0368249 	8.84672e-19
-0.03125 	-0.984375 	0.5 	39.6072 	0.0341773 	7.94082e-19
-0.015625 	-0.984375 	0.5 	39.6083 	0.0316072 	-3.33832e-19
0 	-0.984375 	0.5 	39.6096 	0.029329 	1.21026e-20
0.015625 	-0.984375 	0.5 	39.6113 	0.027078 	-3.06668e-21
0.03125 	-0.984375 	0.5 	39.6129 	0.0248987 	-3.21323e-19
0.046875 	-0.984375 	0.5 	39.6146 	0.0231194 	2.30756e-19
0.0625 	-0.984375 	0.5 	39.6164 	0.0214537 	4.31844e-19
0.078125 	-0.984375 	0.5 	39.6181 	0.0195328 	-1.99796e-18
0.09375 	-0.984375 	0.5 	39.6198 	0.0185217 	2.97499e-19
0.109375 	-0.984375 	0.5 	39.6212 	0.0169799 	1.44089e-18
0.125 	-0.984375 	0.5 	39.6225 	0.0159899 	5.80552e-19
0.140625 	-0.984375 	0.5 	39.624 	0.0147582 	2.23074e-19
0.15625 	-0.984375 	0.5 	39.6255 	0.0136366 	-6.49789e-20
0.171875 	-0.984375 	0.5 	39.6267 	0.0128133 	-3.85403e-20
0.1875 	-0.984375 	0.5 	39.6281 	0.012061 	-7.8743e-20
0.203125 	-0.984375 	0.5 	39.6292 	0.0114873 	-6.51284e-19
0.21875 	-0.984375 	0.5 	39.6303 	0.010983 	4.20482e-20
0.234375 	-0.984375 	0.5 	39.6313 	0.0106668 	4.35253e-20
0.25 	-0.984375 	0.5 	39.6319 	0.00998517 	-4.26651e-21
0.265625 	-0.984375 	0.5 	39.6325 	0.00973963 	-3.37735e-19
0.28125 	-0.984375 	0.5 	39.6331 	0.00966869 	-1.68267e-19
0.296875 	-0.984375 	0.5 	39.6336 	0.00944226 	1.78338e-19
0.3125 	-0.984375 	0.5 	39.6339 	0.00915842 	1.33304e-19
0.328125 	-0.984375 	0.5 	39.6341 	0.00918169 	3.56506e-19
0.34375 	-0.984375 	0.5 	39.6341 	0.00912071 	1.11549e-19
0.359375 	-0.984375 	0.5 	39.634 	0.00890189 	8.9804e-20
0.375 	-0.984375 	0.5 	39.6338 	0.0088163 	3.35482e-19
0.390625 	-0.984375 	0.5 	39.6334 	0.0086945 	1.13648e-19
0.40625 	-0.984375 	0.5 	39.6329 	0.00840966 	-1.56212e-20
0.421875 	-0.984375 	0.5 	39.6322 	0.00815348 	-7.43862e-21
0.4375 	-0.984375 	0.5 	39.6315 	0.00798748 	-1.37422e-20
0.453125 	-0.984375 	0.5 	39.6304 	0.00760811 	1.8033e-20
0.46875 	-0.984375 	0.5 	39.6294 	0.00726201 	6.48439e-20
0.484375 	-0.984375 	0.5 	39.6282 	0.00688814 	8.92333e-20
0.5 	-0.984375 	0.5 	39.627 	0.00634789 	1.12478e-19
0.515625 	-0.984375 	0.5 	39.6257 	0.00582246 	2.78108e-19
0.53125 	-0.984375 	0.5 	39.6244 	0.00490775 	2.32259e-20
0.546875 	-0.984375 	0.5 	39.623 	0.00406596 	6.35845e-20
0.5625 	-0.984375 	0.5 	39.6216 	0.00315702 	-1.15414e-19
0.578125 	-0.984375 	0.5 	39.6196 	0.00216194 	-3.40739e-19
0.59375 	-0.984375 	0.5 	39.6176 	0.000949207 	-1.93449e-19
0.609375 	-0.984375 	0.5 	39.6157 	-0.000457091 	-3.1317e-19
0.625 	-0.984375 	0.5 	39.6141 	-0.00206504 	-1.37546e-19
0.640625 	-0.984375 	0.5 	39.6121 	-0.00364926 	-2.82555e-19
0.65625 	-0.984375 	0.5 	39.6101 	-0.00562348 	-7.1092e-20
0.671875 	-0.984375 	0.5 	39.6079 	-0.0084338 	3.97273e-19
0.6875 	-0.984375 	0.5 	39.6067 	-0.0100338 	2.64904e-20
0.703125 	-0.984375 	0.5 	39.6042 	-0.0122395 	-1.19113e-19
0.71875 	-0.984375 	0.5 	39.6028 	-0.0143175 	-2.58307e-21
0.734375 	-0.984375 	0.5 	39.6005 	-0.0177889 	4.32382e-21
0.75 	-0.984375 	0.5 	39.5986 	-0.0205316 	2.88248e-20
0.765625 	-0.984375 	0.5 	39.5968 	-0.0231713 	8.04398e-20
0.78125 	-0.984375 	0.5 	39.5949 	-0.0260938 	1.39192e-19
0.796875 	-0.984375 	0.5 	39.5933 	-0.0288807 	8.02661e-20
0.8125 	-0.984375 	0.5 	39.5921 	-0.0322485 	1.11125e-19
0.828125 	-0.984375 	0.5 	39.5903 	-0.0352392 	5.52241e-19
0.84375 	-0.984375 	0.5 	39.5891 	-0.0394742 	4.87973e-20
0.859375 	-0.984375 	0.5 	39.5878 	-0.0435243 	-2.53661e-19
0.875 	-0.984375 	0.5 	39.5866 	-0.0473146 	-4.71185e-19
0.890625 	-0.984375 	0.5 	39.5854 	-0.0510746 	-1.30193e-19
0.90625 	-0.984375 	0.5 	39.5844 	-0.0551478 	-3.89996e-19
0.921875 	-0.984375 	0.5 	39.5834 	-0.0595454 	-6.92634e-19
0.9375 	-0.984375 	0.5 	39.5827 	-0.063463 	2.29115e-19
0.953125 	-0.984375 	0.5 	39.5817 	-0.0686827 	-2.78751e-20
0.96875 	-0.984375 	0.5 	39.5811 	-0.0734407 	-3.62029e-19
0.984375 	-0.984375 	0.5 	39.5807 	-0.0772259 	2.34302e-19
1 	-0.984375 	0.5 	39.5811 	-0.0813173 	1.05709e-19
1.01562 	-0.984375 	0.5 	39.5812 	-0.086219 	-1.8635e-19
1.03125 	-0.984375 	0.5 	39.5819 	-0.0908428 	5.14459e-20
1.04688 	-0.984375 	0.5 	39.5819 	-0.0953089 	-4.18907e-20
1.0625 	-0.984375 	0.5 	39.5824 	-0.100452 	-4.97088e-19
1.07812 	-0.984375 	0.5 	39.5833 	-0.104426 	1.08122e-19
1.09375 	-0.984375 	0.5 	39.5839 	-0.109352 	-3.6718e-21
1.10938 	-0.984375 	0.5 	39.5852 	-0.114085 	7.21138e-19
1.125 	-0.984375 	0.5 	39.5864 	-0.118716 	8.50155e-19
1.14062 	-0.984375 	0.5 	39.5873 	-0.123483 	3.71758e-19
1.15625 	-0.984375 	0.5 	39.5886 	-0.128492 	1.88726e-19
1.17188 	-0.984375 	0.5 	39.59 	-0.133278 	7.10188e-19
1.1875 	-0.984375 	0.5 	39.5913 	-0.137515 	1.82318e-19
1.20312 	-0.984375 	0.5 	39.5927 	-0.141464 	1.05205e-19
1.21875 	-0.984375 	0.5 	39.5949 	-0.146878 	-3.60525e-19
1.23438 	-0.984375 	0.5 	39.597 	-0.151694 	-1.07269e-18
1.25 	-0.984375 	0.5 	39.5996 	-0.156154 	-8.01946e-20
1.26562 	-0.984375 	0.5 	39.6025 	-0.160824 	-3.92024e-19
1.28125 	-0.984375 	0.5 	39.6052 	-0.1649 	-4.48809e-19
1.29688 	-0.984375 	0.5 	39.6076 	-0.16878 	7.80166e-19
1.3125 	-0.984375 	0.5 	39.6098 	-0.172157 	5.24772e-19
1.32812 	-0.984375 	0.5 	39.6126 	-0.174956 	-2.36423e-18
1.34375 	-0.984375 	0.5 	39.616 	-0.178898 	-1.77052e-18
1.35938 	-0.984375 	0.5 	39.6199 	-0.183204 	2.3267e-20
1.375 	-0.984375 	0.5 	39.6231 	-0.187037 	4.08138e-21
1.39062 	-0.984375 	0.5 	39.6256 	-0.191275 	5.30335e-20
1.40625 	-0.984375 	0.5 	39.6293 	-0.194745 	6.11133e-19
1.42188 	-0.984375 	0.5 	39.6328 	-0.198792 	2.55372e-18
1.4375 	-0.984375 	0.5 	39.6361 	-0.202022 	1.18329e-18
1.45312 	-0.984375 	0.5 	39.6395 	-0.205296 	-2.56841e-19
1.46875 	-0.984375 	0.5 	39.6432 	-0.208914 	-6.55808e-21
1.48438 	-0.984375 	0.5 	39.647 	-0.211659 	-3.74129e-19
-0.5 	-0.96875 	0.5 	39.6027 	0.146046 	1.81387e-20
-0.484375 	-0.96875 	0.5 	39.6014 	0.142677 	1.14004e-18
-0.46875 	-0.96875 	0.5 	39.5996 	0.138806 	1.0636e-18
-0.453125 	-0.96875 	0.5 	39.5974 	0.134253 	-3.48697e-19
-0.4375 	-0.96875 	0.5 	39.5955 	0.130054 	1.16131e-19
-0.421875 	-0.96875 	0.5 	39.594 	0.126206 	6.27171e-19
-0.40625 	-0.96875 	0.5 	39.5923 	0.121949 	3.85101e-19
-0.390625 	-0.96875 	0.5 	39.5917 	0.117837 	1.09765e-18
-0.375 	-0.96875 	0.5 	39.5908 	0.113731 	7.86854e-19
-0.359375 	-0.96875 	0.5 	39.5899 	0.109624 	4.76053e-19
-0.34375 	-0.96875 	0.5 	39.5891 	0.105507 	-2.20424e-19
-0.328125 	-0.96875 	0.5 	39.5883 	0.101422 	-1.03181e-18
-0.3125 	-0.96875 	0.5 	39.5879 	0.0966887 	-5.88836e-19
-0.296875 	-0.96875 	0.5 	39.588 	0.091204 	-3.94581e-19
-0.28125 	-0.96875 	0.5 	39.5881 	0.0874969 	-1.75568e-19
-0.265625 	-0.96875 	0.5 	39.5881 	0.08401 	2.47195e-19
-0.25 	-0.96875 	0.5 	39.5882 	0.0802924 	6.4527e-20
-0.234375 	-0.96875 	0.5 	39.5886 	0.0760942 	-5.44736e-20
-0.21875 	-0.96875 	0.5 	39.5891 	0.0720918 	-1.85026e-19
-0.203125 	-0.96875 	0.5 	39.5896 	0.0683093 	-3.28551e-19
-0.1875 	-0.96875 	0.5 	39.5902 	0.06469 	-4.69728e-19
-0.171875 	-0.96875 	0.5 	39.5912 	0.0606119 	-7.66613e-19
-0.15625 	-0.96875 	0.5 	39.5919 	0.0567615 	-7.73268e-20
-0.140625 	-0.96875 	0.5 	39.5929 	0.0532545 	-3.04496e-19
-0.125 	-0.96875 	0.5 	39.5945 	0.0499046 	-1.075e-18
-0.109375 	-0.96875 	0.5 	39.5958 	0.0467542 	-1.08531e-18
-0.09375 	-0.96875 	0.5 	39.5969 	0.0437921 	-1.79959e-19
-0.078125 	-0.96875 	0.5 	39.5987 	0.0410341 	-5.44884e-19
-0.0625 	-0.96875 	0.5 	39.6006 	0.0378929 	4.87375e-19
-0.046875 	-0.96875 	0.5 	39.6021 	0.0352421 	6.09123e-19
-0.03125 	-0.96875 	0.5 	39.6031 	0.0326277 	7.03896e-19
-0.015625 	-0.96875 	0.5 	39.6049 	0.0298775 	-5.68625e-20
0 	-0.96875 	0.5 	39.6068 	0.0276416 	5.61537e-20
0.015625 	-0.96875 	0.5 	39.6085 	0.0254637 	8.89241e-20
0.03125 	-0.96875 	0.5 	39.6102 	0.0232859 	1.21695e-19
0.046875 	-0.96875 	0.5 	39.612 	0.0215783 	1.96058e-19
0.0625 	-0.96875 	0.5 	39.6137 	0.0198735 	2.70088e-19
0.078125 	-0.96875 	0.5 	39.6154 	0.0179511 	-1.45602e-18
0.09375 	-0.96875 	0.5 	39.6172 	0.016728 	-1.02694e-18
0.109375 	-0.96875 	0.5 	39.619 	0.0155429 	-3.34935e-19
0.125 	-0.96875 	0.5 	39.6206 	0.0142969 	5.9899e-20
0.140625 	-0.96875 	0.5 	39.6222 	0.0128799 	-3.01781e-19
0.15625 	-0.96875 	0.5 	39.6238 	0.0121532 	-4.38827e-20
0.171875 	-0.96875 	0.5 	39.6251 	0.0115832 	-9.14828e-20
0.1875 	-0.96875 	0.5 	39.6265 	0.0110364 	-1.95597e-19
0.203125 	-0.96875 	0.5 	39.6277 	0.010384 	-1.90546e-19
0.21875 	-0.96875 	0.5 	39.6287 	0.00993761 	-7.63373e-20
0.234375 	-0.96875 	0.5 	39.6297 	0.00963406 	-8.36948e-20
0.25 	-0.96875 	0.5 	39.6305 	0.00929715 	-1.70828e-19
0.265625 	-0.96875 	0.5 	39.6312 	0.00909464 	-5.93932e-19
0.28125 	-0.96875 	0.5 	39.6317 	0.00903506 	-2.29622e-19
0.296875 	-0.96875 	0.5 	39.6325 	0.00900292 	-2.77496e-19
0.3125 	-0.96875 	0.5 	39.6328 	0.00910296 	-4.88268e-19
0.328125 	-0.96875 	0.5 	39.633 	0.00905448 	-1.30091e-18
0.34375 	-0.96875 	0.5 	39.6332 	0.00904608 	-6.17759e-19
0.359375 	-0.96875 	0.5 	39.6331 	0.00926224 	-1.38088e-19
0.375 	-0.96875 	0.5 	39.6327 	0.0091194 	9.99792e-21
0.390625 	-0.96875 	0.5 	39.6325 	0.00906485 	-1.29601e-20
0.40625 	-0.96875 	0.5 	39.6319 	0.00915084 	-2.3612e-20
0.421875 	-0.96875 	0.5 	39.6312 	0.00896069 	-7.64421e-21
0.4375 	-0.96875 	0.5 	39.6303 	0.00886753 	-2.38296e-21
0.453125 	-0.96875 	0.5 	39.6294 	0.0086563 	-1.38041e-19
0.46875 	-0.96875 	0.5 	39.6283 	0.00845691 	-3.80973e-20
0.484375 	-0.96875 	0.5 	39.6271 	0.00812678 	4.49388e-20
0.5 	-0.96875 	0.5 	39.6258 	0.00751151 	-2.47417e-21
0.515625 	-0.96875 	0.5 	39.6245 	0.00699422 	-3.04713e-21
0.53125 	-0.96875 	0.5 	39.6228 	0.00659468 	-8.23313e-20
0.546875 	-0.96875 	0.5 	39.6214 	0.00593095 	-1.3181e-18
0.5625 	-0.96875 	0.5 	39.62 	0.00480332 	-5.70128e-20
0.578125 	-0.96875 	0.5 	39.618 	0.00400186 	-4.25158e-19
0.59375 	-0.96875 	0.5 	39.616 	0.00265065 	-4.30763e-20
0.609375 	-0.96875 	0.5 	39.6141 	0.00123084 	-1.48306e-19
0.625 	-0.96875 	0.5 	39.6118 	-6.62266e-05 	-5.5571e-19
0.640625 	-0.96875 	0.5 	39.6097 	-0.00195219 	-2.41522e-19
0.65625 	-0.96875 	0.5 	39.6076 	-0.00355451 	-2.05606e-19
0.671875 	-0.96875 	0.5 	39.6059 	-0.00581328 	-1.7918e-20
0.6875 	-0.96875 	0.5 	39.6033 	-0.00818646 	-1.49838e-19
0.703125 	-0.96875 	0.5 	39.6009 	-0.0103525 	-2.98681e-19
0.71875 	-0.96875 	0.5 	39.5989 	-0.0129469 	-2.95933e-19
0.734375 	-0.96875 	0.5 	39.5976 	-0.0156229 	-8.33542e-19
0.75 	-0.96875 	0.5 	39.5952 	-0.0184677 	2.41132e-19
0.765625 	-0.96875 	0.5 	39.5933 	-0.0212086 	3.8314e-19
0.78125 	-0.96875 	0.5 	39.5912 	-0.0240718 	8.88204e-21
0.796875 	-0.96875 	0.5 	39.5899 	-0.0276584 	2.02353e-19
0.8125 	-0.96875 	0.5 	39.5884 	-0.0308788 	9.8118e-20
0.828125 	-0.96875 	0.5 	39.5871 	-0.0343785 	1.9737e-19
0.84375 	-0.96875 	0.5 	39.585 	-0.038322 	-6.44931e-19
0.859375 	-0.96875 	0.5 	39.5833 	-0.0422277 	-4.7677e-20
0.875 	-0.96875 	0.5 	39.5821 	-0.0460984 	-3.65959e-20
0.890625 	-0.96875 	0.5 	39.5808 	-0.0499548 	-1.31454e-19
0.90625 	-0.96875 	0.5 	39.5796 	-0.0546132 	-5.56911e-20
0.921875 	-0.96875 	0.5 	39.5787 	-0.0590579 	-3.39123e-20
0.9375 	-0.96875 	0.5 	39.5778 	-0.0635016 	-1.59957e-20
0.953125 	-0.96875 	0.5 	39.5774 	-0.0684302 	-5.63958e-19
0.96875 	-0.96875 	0.5 	39.577 	-0.0733714 	-1.13171e-18
0.984375 	-0.96875 	0.5 	39.5751 	-0.0770076 	-3.60693e-20
1 	-0.96875 	0.5 	39.5754 	-0.0810241 	3.00104e-20
1.01562 	-0.96875 	0.5 	39.5755 	-0.0860434 	-2.74954e-19
1.03125 	-0.96875 	0.5 	39.576 	-0.0907615 	-1.22238e-19
1.04688 	-0.96875 	0.5 	39.5766 	-0.0954796 	3.0479e-20
1.0625 	-0.96875 	0.5 	39.5773 	-0.100149 	7.21918e-19
1.07812 	-0.96875 	0.5 	39.578 	-0.104844 	1.31921e-18
1.09375 	-0.96875 	0.5 	39.5786 	-0.110316 	-2.50986e-19
1.10938 	-0.96875 	0.5 	39.5797 	-0.115558 	-3.15348e-19
1.125 	-0.96875 	0.5 	39.5811 	-0.119842 	1.04964e-18
1.14062 	-0.96875 	0.5 	39.5817 	-0.125005 	-8.10696e-20
1.15625 	-0.96875 	0.5 	39.5832 	-0.131616 	-9.79019e-19
1.17188 	-0.96875 	0.5 	39.5849 	-0.134864 	7.68746e-20
1.1875 	-0.96875 	0.5 	39.5862 	-0.139425 	1.6822e-19
1.20312 	-0.96875 	0.5 	39.5879 	-0.143946 	-1.35418e-19
1.21875 	-0.96875 	0.5 	39.5901 	-0.14865 	-1.09609e-18
1.23438 	-0.96875 	0.5 	39.5922 	-0.153535 	-1.25874e-18
1.25 	-0.96875 	0.5 	39.5945 	-0.158091 	1.93244e-19
1.26562 	-0.96875 	0.5 	39.5974 	-0.162254 	6.11663e-19
1.28125 	-0.96875 	0.5 	39.6003 	-0.167119 	2.15902e-19
1.29688 	-0.96875 	0.5 	39.6031 	-0.171641 	1.74248e-19
1.3125 	-0.96875 	0.5 	39.6061 	-0.175125 	-4.39252e-19
1.32812 	-0.96875 	0.5 	39.6095 	-0.178922 	-2.6457e-19
1.34375 	-0.96875 	0.5 	39.6128 	-0.182712 	-1.29277e-19
1.35938 	-0.96875 	0.5 	39.616 	-0.186473 	-1.28679e-19
1.375 	-0.96875 	0.5 	39.6188 	-0.190468 	2.89854e-21
1.39062 	-0.96875 	0.5 	39.6216 	-0.194464 	1.34476e-19
1.40625 	-0.96875 	0.5 	39.6251 	-0.198112 	6.57801e-19
1.42188 	-0.96875 	0.5 	39.6284 	-0.201638 	4.88603e-19
1.4375 	-0.96875 	0.5 	39.6323 	-0.205086 	-1.10727e-18
1.45312 	-0.96875 	0.5 	39.636 	-0.208791 	-1.05738e-18
1.46875 	-0.96875 	0.5 	39.6397 	-0.21252 	3.32557e-19
1.48438 	-0.96875 	0.5 	39.6435 	-0.216003 	1.30617e-19
-0.5 	-0.953125 	0.5 	39.5981 	0.148532 	-8.41696e-19
-0.484375 	-0.953125 	0.5 	39.5962 	0.143897 	-3.31515e-19
-0.46875 	-0.953125 	0.5 	39.5946 	0.140093 	4.01043e-19
-0.453125 	-0.953125 	0.5 	39.5927 	0.135387 	-9.79421e-19
-0.4375 	-0.953125 	0.5 	39.591 	0.130892 	-1.3091e-18
-0.421875 	-0.953125 	0.5 	39.5889 	0.127119 	2.15097e-19
-0.40625 	-0.953125 	0.5 	39.5875 	0.123029 	5.42538e-19
-0.390625 	-0.953125 	0.5 	39.5867 	0.118922 	3.26457e-19
-0.375 	-0.953125 	0.5 	39.5856 	0.114565 	1.10992e-18
-0.359375 	-0.953125 	0.5 	39.5846 	0.110305 	8.83391e-19
-0.34375 	-0.953125 	0.5 	39.5837 	0.106428 	7.45615e-19
-0.328125 	-0.953125 	0.5 	39.5832 	0.101328 	-2.24635e-19
-0.3125 	-0.953125 	0.5 	39.5826 	0.0969256 	-6.44358e-19
-0.296875 	-0.953125 	0.5 	39.5827 	0.092396 	-4.55245e-19
-0.28125 	-0.953125 	0.5 	39.5827 	0.0884382 	-4.08819e-19
-0.265625 	-0.953125 	0.5 	39.5826 	0.0840888 	-4.66185e-19
-0.25 	-0.953125 	0.5 	39.5833 	0.0799266 	-1.81387e-19
-0.234375 	-0.953125 	0.5 	39.5839 	0.0761128 	-7.37523e-19
-0.21875 	-0.953125 	0.5 	39.5843 	0.0721022 	-8.30424e-19
-0.203125 	-0.953125 	0.5 	39.5847 	0.0677231 	-2.47238e-19
-0.1875 	-0.953125 	0.5 	39.5857 	0.0637285 	-4.67385e-19
-0.171875 	-0.953125 	0.5 	39.5865 	0.0597489 	-3.36835e-19
-0.15625 	-0.953125 	0.5 	39.5872 	0.0556211 	-6.89645e-20
-0.140625 	-0.953125 	0.5 	39.5885 	0.0520732 	1.57005e-20
-0.125 	-0.953125 	0.5 	39.5899 	0.0489259 	-8.31202e-20
-0.109375 	-0.953125 	0.5 	39.5913 	0.0457502 	-1.92531e-19
-0.09375 	-0.953125 	0.5 	39.5926 	0.0425021 	-3.09357e-19
-0.078125 	-0.953125 	0.5 	39.5946 	0.0394131 	-4.22548e-19
-0.0625 	-0.953125 	0.5 	39.5963 	0.0361728 	3.07469e-19
-0.046875 	-0.953125 	0.5 	39.5984 	0.0333309 	1.3286e-19
-0.03125 	-0.953125 	0.5 	39.5996 	0.0306803 	4.73464e-21
-0.015625 	-0.953125 	0.5 	39.6014 	0.028021 	-3.10237e-19
0 	-0.953125 	0.5 	39.6036 	0.0257734 	-8.88932e-20
0.015625 	-0.953125 	0.5 	39.6053 	0.0235783 	-5.09068e-20
0.03125 	-0.953125 	0.5 	39.6074 	0.0213525 	5.76597e-20
0.046875 	-0.953125 	0.5 	39.6094 	0.0195424 	3.09313e-19
0.0625 	-0.953125 	0.5 	39.6111 	0.0178512 	-1.98715e-20
0.078125 	-0.953125 	0.5 	39.613 	0.0162314 	-4.88318e-19
0.09375 	-0.953125 	0.5 	39.6151 	0.0148341 	-5.88351e-20
0.109375 	-0.953125 	0.5 	39.6168 	0.0135998 	1.50522e-20
0.125 	-0.953125 	0.5 	39.6188 	0.0127361 	2.51417e-19
0.140625 	-0.953125 	0.5 	39.6205 	0.0112979 	-4.07269e-19
0.15625 	-0.953125 	0.5 	39.6221 	0.0106838 	-4.0659e-20
0.171875 	-0.953125 	0.5 	39.6234 	0.0100902 	-5.78692e-20
0.1875 	-0.953125 	0.5 	39.6248 	0.00958768 	-2.37152e-19
0.203125 	-0.953125 	0.5 	39.6264 	0.00920203 	-9.41582e-20
0.21875 	-0.953125 	0.5 	39.6274 	0.00895765 	3.47449e-20
0.234375 	-0.953125 	0.5 	39.6283 	0.00866861 	-2.66281e-20
0.25 	-0.953125 	0.5 	39.6294 	0.00848242 	-2.52426e-19
0.265625 	-0.953125 	0.5 	39.6303 	0.00859956 	-8.49483e-19
0.28125 	-0.953125 	0.5 	39.6311 	0.00855531 	-9.86019e-19
0.296875 	-0.953125 	0.5 	39.6318 	0.00870113 	7.52688e-19
0.3125 	-0.953125 	0.5 	39.6321 	0.00886197 	9.59794e-19
0.328125 	-0.953125 	0.5 	39.6323 	0.00906051 	-1.4467e-19
0.34375 	-0.953125 	0.5 	39.6324 	0.00909363 	-5.69596e-20
0.359375 	-0.953125 	0.5 	39.6322 	0.00947925 	-5.41165e-21
0.375 	-0.953125 	0.5 	39.6321 	0.00958217 	-2.08518e-20
0.390625 	-0.953125 	0.5 	39.6317 	0.00959579 	-5.37853e-21
0.40625 	-0.953125 	0.5 	39.631 	0.00976133 	-8.66497e-21
0.421875 	-0.953125 	0.5 	39.6303 	0.00975527 	-2.28786e-20
0.4375 	-0.953125 	0.5 	39.6294 	0.00974398 	-2.91868e-19
0.453125 	-0.953125 	0.5 	39.6285 	0.00976086 	-2.78937e-19
0.46875 	-0.953125 	0.5 	39.6273 	0.00953585 	-7.23137e-20
0.484375 	-0.953125 	0.5 	39.626 	0.00934166 	-1.0615e-20
0.5 	-0.953125 	0.5 	39.6246 	0.00891765 	2.40872e-20
0.515625 	-0.953125 	0.5 	39.6231 	0.00874552 	1.18689e-19
0.53125 	-0.953125 	0.5 	39.6217 	0.00811498 	1.77193e-18
0.546875 	-0.953125 	0.5 	39.6198 	0.00758811 	-6.42578e-19
0.5625 	-0.953125 	0.5 	39.6181 	0.00656922 	6.25253e-19
0.578125 	-0.953125 	0.5 	39.6163 	0.00556376 	5.12111e-19
0.59375 	-0.953125 	0.5 	39.6144 	0.00450843 	5.45694e-20
0.609375 	-0.953125 	0.5 	39.6117 	0.00380806 	1.46039e-19
0.625 	-0.953125 	0.5 	39.6097 	0.00205309 	-5.34718e-19
0.640625 	-0.953125 	0.5 	39.6076 	0.000117418 	-1.08739e-18
0.65625 	-0.953125 	0.5 	39.6053 	-0.00172262 	-1.90851e-20
0.671875 	-0.953125 	0.5 	39.603 	-0.00351888 	-2.72527e-19
0.6875 	-0.953125 	0.5 	39.6007 	-0.00562653 	-5.24213e-19
0.703125 	-0.953125 	0.5 	39.5979 	-0.00801914 	-4.04426e-19
0.71875 	-0.953125 	0.5 	39.5957 	-0.0107452 	-9.02343e-19
0.734375 	-0.953125 	0.5 	39.5937 	-0.0134304 	-6.41061e-19
0.75 	-0.953125 	0.5 	39.5918 	-0.0160742 	-2.22294e-19
0.765625 	-0.953125 	0.5 	39.5897 	-0.0190861 	-2.73279e-19
0.78125 	-0.953125 	0.5 	39.5874 	-0.0222027 	-2.17688e-19
0.796875 	-0.953125 	0.5 	39.5859 	-0.0256553 	2.77378e-19
0.8125 	-0.953125 	0.5 	39.5849 	-0.0293246 	1.29569e-19
0.828125 	-0.953125 	0.5 	39.5829 	-0.0330968 	1.33871e-19
0.84375 	-0.953125 	0.5 	39.5806 	-0.0367231 	-8.20894e-20
0.859375 	-0.953125 	0.5 	39.5786 	-0.0405247 	7.29549e-20
0.875 	-0.953125 	0.5 	39.5774 	-0.0446678 	2.86159e-20
0.890625 	-0.953125 	0.5 	39.5761 	-0.048819 	-1.70137e-19
0.90625 	-0.953125 	0.5 	39.5748 	-0.0534076 	-1.38996e-19
0.921875 	-0.953125 	0.5 	39.5739 	-0.0576979 	-1.28422e-19
0.9375 	-0.953125 	0.5 	39.5727 	-0.0625643 	9.58735e-20
0.953125 	-0.953125 	0.5 	39.572 	-0.0697945 	1.13084e-18
0.96875 	-0.953125 	0.5 	39.5712 	-0.0733068 	6.18628e-19
0.984375 	-0.953125 	0.5 	39.5704 	-0.0764331 	-1.61808e-19
1 	-0.953125 	0.5 	39.5697 	-0.0807308 	-4.56876e-20
1.01562 	-0.953125 	0.5 	39.5701 	-0.0855212 	-5.23696e-20
1.03125 	-0.953125 	0.5 	39.5706 	-0.0904641 	-2.9537e-19
1.04688 	-0.953125 	0.5 	39.5713 	-0.0954027 	-2.02168e-19
1.0625 	-0.953125 	0.5 	39.5712 	-0.100055 	4.10759e-19
1.07812 	-0.953125 	0.5 	39.5721 	-0.105716 	4.50061e-19
1.09375 	-0.953125 	0.5 	39.5733 	-0.111281 	-4.983e-19
1.10938 	-0.953125 	0.5 	39.5747 	-0.116768 	-8.60168e-19
1.125 	-0.953125 	0.5 	39.5752 	-0.121237 	3.72883e-20
1.14062 	-0.953125 	0.5 	39.5763 	-0.126955 	-5.40011e-19
1.15625 	-0.953125 	0.5 	39.5779 	-0.132241 	-6.70337e-19
1.17188 	-0.953125 	0.5 	39.5795 	-0.136928 	-4.5436e-19
1.1875 	-0.953125 	0.5 	39.5811 	-0.141304 	-5.83745e-20
1.20312 	-0.953125 	0.5 	39.5831 	-0.145775 	-7.62589e-19
1.21875 	-0.953125 	0.5 	39.5853 	-0.150422 	-1.42813e-18
1.23438 	-0.953125 	0.5 	39.5874 	-0.155376 	-1.4448e-18
1.25 	-0.953125 	0.5 	39.5896 	-0.160383 	5.45666e-20
1.26562 	-0.953125 	0.5 	39.5924 	-0.164488 	5.40659e-19
1.28125 	-0.953125 	0.5 	39.5953 	-0.16945 	3.18477e-20
1.29688 	-0.953125 	0.5 	39.5983 	-0.174534 	4.29358e-20
1.3125 	-0.953125 	0.5 	39.6015 	-0.179095 	1.51086e-19
1.32812 	-0.953125 	0.5 	39.6034 	-0.182861 	5.68433e-20
1.34375 	-0.953125 	0.5 	39.6072 	-0.186671 	3.73166e-20
1.35938 	-0.953125 	0.5 	39.6099 	-0.190226 	1.04499e-18
1.375 	-0.953125 	0.5 	39.6124 	-0.193794 	1.69271e-18
1.39062 	-0.953125 	0.5 	39.6168 	-0.197709 	8.65543e-19
1.40625 	-0.953125 	0.5 	39.621 	-0.201392 	4.76567e-19
1.42188 	-0.953125 	0.5 	39.6249 	-0.205029 	-7.02336e-19
1.4375 	-0.953125 	0.5 	39.6288 	-0.208588 	-1.85441e-18
1.45312 	-0.953125 	0.5 	39.6324 	-0.212372 	-1.15439e-18
1.46875 	-0.953125 	0.5 	39.6362 	-0.216065 	1.65249e-19
1.48438 	-0.953125 	0.5 	39.64 	-0.219593 	3.5404e-19
-0.5 	-0.9375 	0.5 	39.5924 	0.150981 	-9.83984e-19
-0.484375 	-0.9375 	0.5 	39.5908 	0.146356 	-6.23548e-19
-0.46875 	-0.9375 	0.5 	39.5893 	0.141543 	-5.69175e-20
-0.453125 	-0.9375 	0.5 	39.5871 	0.136874 	-3.31375e-19
-0.4375 	-0.9375 	0.5 	39.5853 	0.13256 	-1.95015e-19
-0.421875 	-0.9375 	0.5 	39.5835 	0.128246 	-5.8655e-20
-0.40625 	-0.9375 	0.5 	39.5824 	0.123962 	1.77159e-19
-0.390625 	-0.9375 	0.5 	39.5813 	0.119553 	1.17799e-18
-0.375 	-0.9375 	0.5 	39.5801 	0.115152 	2.19481e-18
-0.359375 	-0.9375 	0.5 	39.5793 	0.110998 	1.03953e-18
-0.34375 	-0.9375 	0.5 	39.5783 	0.107451 	1.08601e-18
-0.328125 	-0.9375 	0.5 	39.5778 	0.102333 	9.67936e-20
-0.3125 	-0.9375 	0.5 	39.5772 	0.0970749 	-6.45102e-19
-0.296875 	-0.9375 	0.5 	39.5766 	0.0925237 	-1.63475e-18
-0.28125 	-0.9375 	0.5 	39.5765 	0.0881709 	-1.71869e-18
-0.265625 	-0.9375 	0.5 	39.5772 	0.0841511 	1.00028e-18
-0.25 	-0.9375 	0.5 	39.5779 	0.0795684 	9.54408e-19
-0.234375 	-0.9375 	0.5 	39.5787 	0.0756845 	-6.82215e-19
-0.21875 	-0.9375 	0.5 	39.579 	0.0714065 	-1.45433e-19
-0.203125 	-0.9375 	0.5 	39.5799 	0.0664618 	2.83792e-19
-0.1875 	-0.9375 	0.5 	39.5807 	0.0624488 	-4.11914e-19
-0.171875 	-0.9375 	0.5 	39.5816 	0.0585135 	-3.22299e-19
-0.15625 	-0.9375 	0.5 	39.5826 	0.0546939 	2.76479e-19
-0.140625 	-0.9375 	0.5 	39.5837 	0.0508877 	2.57564e-19
-0.125 	-0.9375 	0.5 	39.5851 	0.0474069 	9.81759e-20
-0.109375 	-0.9375 	0.5 	39.5864 	0.0441939 	-2.51982e-20