-0.5 	-1 	0.5 	39.8515 	-0.0794455 	-5.68842e-21
-0.484375 	-1 	0.5 	39.8529 	-0.0824915 	-4.92734e-21
-0.46875 	-1 	0.5 	39.8544 	-0.0855189 	-2.99872e-21
-0.453125 	-1 	0.5 	39.8562 	-0.0885946 	-4.27822e-22
-0.4375 	-1 	0.5 	39.858 	-0.0917484 	1.10438e-20
-0.421875 	-1 	0.5 	39.8598 	-0.0948734 	2.37627e-20
-0.40625 	-1 	0.5 	39.8616 	-0.0975693 	5.45894e-20
-0.390625 	-1 	0.5 	39.8635 	-0.100694 	2.39007e-20
-0.375 	-1 	0.5 	39.8658 	-0.103934 	5.73653e-21
-0.359375 	-1 	0.5 	39.8678 	-0.106562 	2.54316e-21
-0.34375 	-1 	0.5 	39.8706 	-0.109103 	1.43876e-20
-0.328125 	-1 	0.5 	39.8735 	-0.111867 	1.29076e-20
-0.3125 	-1 	0.5 	39.8764 	-0.114802 	3.16968e-21
-0.296875 	-1 	0.5 	39.8797 	-0.11771 	2.8498e-20
-0.28125 	-1 	0.5 	39.8824 	-0.119266 	2.96676e-20
-0.265625 	-1 	0.5 	39.8855 	-0.123316 	3.43388e-20
-0.25 	-1 	0.5 	39.8887 	-0.125391 	1.53602e-20
-0.234375 	-1 	0.5 	39.8919 	-0.126422 	3.94074e-20
-0.21875 	-1 	0.5 	39.8951 	-0.128061 	3.1786e-20
-0.203125 	-1 	0.5 	39.8991 	-0.130078 	1.05853e-19
-0.1875 	-1 	0.5 	39.9034 	-0.132398 	2.29652e-19
-0.171875 	-1 	0.5 	39.907 	-0.133394 	-1.4853e-20
-0.15625 	-1 	0.5 	39.9106 	-0.13449 	-2.09156e-19
-0.140625 	-1 	0.5 	39.9144 	-0.135347 	-1.73432e-20
-0.125 	-1 	0.5 	39.9185 	-0.136406 	1.15386e-20
-0.109375 	-1 	0.5 	39.9224 	-0.137199 	-5.81031e-21
-0.09375 	-1 	0.5 	39.9262 	-0.137512 	-2.07494e-20
-0.078125 	-1 	0.5 	39.9306 	-0.137862 	-7.86743e-20
-0.0625 	-1 	0.5 	39.9347 	-0.138161 	-9.05079e-20
-0.046875 	-1 	0.5 	39.9384 	-0.138642 	-7.6119e-20
-0.03125 	-1 	0.5 	39.9427 	-0.139123 	-1.36595e-19
-0.015625 	-1 	0.5 	39.9471 	-0.138524 	-1.32858e-20
0 	-1 	0.5 	39.9507 	-0.138165 	3.50675e-20
0.015625 	-1 	0.5 	39.9552 	-0.137275 	5.26195e-20
0.03125 	-1 	0.5 	39.9591 	-0.135564 	2.18066e-21
0.046875 	-1 	0.5 	39.9629 	-0.13469 	-9.91363e-22
0.0625 	-1 	0.5 	39.9667 	-0.134496 	3.2643e-20
0.078125 	-1 	0.5 	39.9703 	-0.134274 	7.03407e-20
0.09375 	-1 	0.5 	39.9738 	-0.131814 	8.00181e-20
0.109375 	-1 	0.5 	39.9788 	-0.130282 	-5.70623e-21
0.125 	-1 	0.5 	39.9809 	-0.128247 	-5.85494e-20
0.140625 	-1 	0.5 	39.9848 	-0.126064 	5.12042e-21
0.15625 	-1 	0.5 	39.9877 	-0.123984 	7.3148e-20
0.171875 	-1 	0.5 	39.991 	-0.121666 	7.08784e-20
0.1875 	-1 	0.5 	39.9943 	-0.119461 	2.25642e-20
0.203125 	-1 	0.5 	39.997 	-0.116958 	-2.95638e-20
0.21875 	-1 	0.5 	39.9997 	-0.114332 	-4.6442e-20
0.234375 	-1 	0.5 	40.0024 	-0.11168 	-3.85673e-20
0.25 	-1 	0.5 	40.0049 	-0.108857 	3.96276e-21
0.265625 	-1 	0.5 	40.0074 	-0.106035 	4.64928e-20
0.28125 	-1 	0.5 	40.0095 	-0.103088 	6.30422e-20
0.296875 	-1 	0.5 	40.0113 	-0.100022 	6.11623e-20
0.3125 	-1 	0.5 	40.0132 	-0.0969553 	5.92825e-20
0.328125 	-1 	0.5 	40.015 	-0.0940034 	1.05024e-19
0.34375 	-1 	0.5 	40.0162 	-0.0909231 	-1.08411e-20
0.359375 	-1 	0.5 	40.0176 	-0.0877519 	-8.92618e-20
0.375 	-1 	0.5 	40.0186 	-0.0845058 	-1.31441e-20
0.390625 	-1 	0.5 	40.0195 	-0.0813144 	8.58838e-22
0.40625 	-1 	0.5 	40.0202 	-0.0780792 	1.19079e-20
0.421875 	-1 	0.5 	40.0206 	-0.0749475 	9.86899e-21
0.4375 	-1 	0.5 	40.0211 	-0.071782 	9.17361e-21
0.453125 	-1 	0.5 	40.0214 	-0.0687159 	-8.92393e-21
0.46875 	-1 	0.5 	40.0217 	-0.0654163 	-3.24893e-20
0.484375 	-1 	0.5 	40.0218 	-0.062388 	-6.88293e-22
0.5 	-1 	0.5 	40.0216 	-0.0595785 	-1.06086e-21
0.515625 	-1 	0.5 	40.0213 	-0.056801 	-1.41509e-19
0.53125 	-1 	0.5 	40.0206 	-0.0539239 	-1.15591e-20
0.546875 	-1 	0.5 	40.02 	-0.0510689 	4.36331e-20
0.5625 	-1 	0.5 	40.0194 	-0.0482273 	3.57266e-20
0.578125 	-1 	0.5 	40.0186 	-0.0455558 	2.67727e-21
0.59375 	-1 	0.5 	40.0178 	-0.0431508 	2.90041e-19
0.609375 	-1 	0.5 	40.0169 	-0.0408884 	1.30609e-20
0.625 	-1 	0.5 	40.0155 	-0.0382499 	-2.31375e-20
0.640625 	-1 	0.5 	40.0141 	-0.0364183 	9.31831e-20
0.65625 	-1 	0.5 	40.0128 	-0.0345488 	8.20701e-21
0.671875 	-1 	0.5 	40.0114 	-0.0325639 	-6.85256e-20
0.6875 	-1 	0.5 	40.0099 	-0.0304192 	6.46363e-20
0.703125 	-1 	0.5 	40.0087 	-0.0285484 	3.52823e-20
0.71875 	-1 	0.5 	40.007 	-0.0268603 	9.87074e-21
0.734375 	-1 	0.5 	40.0054 	-0.0252498 	-3.67581e-21
0.75 	-1 	0.5 	40.0039 	-0.0237576 	2.35227e-20
0.765625 	-1 	0.5 	40.0023 	-0.0224525 	6.12066e-20
0.78125 	-1 	0.5 	40.0005 	-0.0212335 	-3.42422e-20
0.796875 	-1 	0.5 	39.9987 	-0.020114 	3.58831e-20
0.8125 	-1 	0.5 	39.9969 	-0.0188946 	1.04738e-20
0.828125 	-1 	0.5 	39.9953 	-0.0180375 	1.32814e-20
0.84375 	-1 	0.5 	39.9934 	-0.0169904 	-1.05169e-19
0.859375 	-1 	0.5 	39.9917 	-0.0162039 	6.48574e-20
0.875 	-1 	0.5 	39.9899 	-0.015651 	4.61544e-21
0.890625 	-1 	0.5 	39.9879 	-0.0156084 	-4.46555e-21
0.90625 	-1 	0.5 	39.986 	-0.0154388 	-1.25407e-20
0.921875 	-1 	0.5 	39.9844 	-0.0151522 	-2.85076e-20
0.9375 	-1 	0.5 	39.9826 	-0.0144153 	4.22774e-20
0.953125 	-1 	0.5 	39.9809 	-0.0142346 	-6.30772e-20
0.96875 	-1 	0.5 	39.9791 	-0.0141574 	-2.56959e-20
0.984375 	-1 	0.5 	39.9776 	-0.0141259 	-3.11712e-20
1 	-1 	0.5 	39.9759 	-0.0143897 	1.43975e-19
1.01562 	-1 	0.5 	39.9741 	-0.0147683 	8.11332e-20
1.03125 	-1 	0.5 	39.9726 	-0.0149275 	1.72994e-20
1.04688 	-1 	0.5 	39.9711 	-0.0153228 	1.24832e-20
1.0625 	-1 	0.5 	39.9696 	-0.0157746 	1.3125e-20
1.07812 	-1 	0.5 	39.9681 	-0.0162118 	1.0132e-20
1.09375 	-1 	0.5 	39.9669 	-0.0167012 	-1.9296e-20
1.10938 	-1 	0.5 	39.9657 	-0.0171906 	-4.8724e-20
1.125 	-1 	0.5 	39.9644 	-0.0178502 	-6.73959e-20
1.14062 	-1 	0.5 	39.963 	-0.0185847 	-8.07042e-20
1.15625 	-1 	0.5 	39.9616 	-0.019087 	2.81571e-20
1.17188 	-1 	0.5 	39.9604 	-0.0199961 	2.1743e-19
1.1875 	-1 	0.5 	39.9592 	-0.020912 	-3.62006e-20
1.20312 	-1 	0.5 	39.9582 	-0.0217075 	-7.67559e-20
1.21875 	-1 	0.5 	39.9574 	-0.022544 	-2.49743e-19
1.23438 	-1 	0.5 	39.9565 	-0.0234978 	-2.19166e-19
1.25 	-1 	0.5 	39.9556 	-0.0244943 	-1.76129e-20
1.26562 	-1 	0.5 	39.9549 	-0.0254998 	1.6923e-20
1.28125 	-1 	0.5 	39.9542 	-0.0264801 	5.21072e-20
1.29688 	-1 	0.5 	39.9535 	-0.0274863 	3.01608e-20
1.3125 	-1 	0.5 	39.9527 	-0.0285206 	-2.07964e-20
1.32812 	-1 	0.5 	39.9519 	-0.0297086 	-1.04854e-20
1.34375 	-1 	0.5 	39.951 	-0.0311919 	1.65476e-20
1.35938 	-1 	0.5 	39.9509 	-0.0324604 	1.25292e-20
1.375 	-1 	0.5 	39.9506 	-0.0331477 	-2.28337e-20
1.39062 	-1 	0.5 	39.9504 	-0.0341564 	-1.85823e-20
1.40625 	-1 	0.5 	39.9502 	-0.0355808 	3.97408e-20
1.42188 	-1 	0.5 	39.9494 	-0.0366565 	2.72873e-19
1.4375 	-1 	0.5 	39.9492 	-0.0377356 	2.16638e-19
1.45312 	-1 	0.5 	39.9493 	-0.0388141 	-2.80221e-20
1.46875 	-1 	0.5 	39.9492 	-0.0399412 	9.35534e-20
1.48438 	-1 	0.5 	39.9491 	-0.0411439 	6.24271e-20
-0.5 	-0.984375 	0.5 	39.8474 	-0.0808175 	1.51586e-19
-0.484375 	-0.984375 	0.5 	39.8491 	-0.0838496 	9.10182e-20
-0.46875 	-0.984375 	0.5 	39.8507 	-0.0870991 	-5.59389e-20
-0.453125 	-0.984375 	0.5 	39.8526 	-0.0904401 	-3.91927e-20
-0.4375 	-0.984375 	0.5 	39.8545 	-0.0935452 	-1.11313e-20
-0.421875 	-0.984375 	0.5 	39.8563 	-0.09665 	1.72424e-20
-0.40625 	-0.984375 	0.5 	39.8585 	-0.0998664 	4.56053e-20
-0.390625 	-0.984375 	0.5 	39.8607 	-0.103177 	3.01333e-20
-0.375 	-0.984375 	0.5 	39.8628 	-0.106468 	2.06332e-20
-0.359375 	-0.984375 	0.5 	39.8653 	-0.10931 	1.11405e-20
-0.34375 	-0.984375 	0.5 	39.8681 	-0.111862 	1.11696e-20
-0.328125 	-0.984375 	0.5 	39.8711 	-0.11475 	8.80554e-21
-0.3125 	-0.984375 	0.5 	39.8742 	-0.117918 	6.51603e-22
-0.296875 	-0.984375 	0.5 	39.8772 	-0.119572 	4.58382e-21
-0.28125 	-0.984375 	0.5 	39.88 	-0.122815 	3.57755e-20
-0.265625 	-0.984375 	0.5 	39.883 	-0.12606 	5.75567e-20
-0.25 	-0.984375 	0.5 	39.8861 	-0.127735 	7.77205e-20
-0.234375 	-0.984375 	0.5 	39.8893 	-0.129482 	1.07556e-19
-0.21875 	-0.984375 	0.5 	39.8929 	-0.131717 	4.50709e-20
-0.203125 	-0.984375 	0.5 	39.8971 	-0.133451 	3.77192e-20
-0.1875 	-0.984375 	0.5 	39.9013 	-0.135597 	1.1357e-19
-0.171875 	-0.984375 	0.5 	39.9053 	-0.137283 	6.17565e-20
-0.15625 	-0.984375 	0.5 	39.9089 	-0.138296 	-5.59265e-20
-0.140625 	-0.984375 	0.5 	39.9128 	-0.139469 	1.03906e-19
-0.125 	-0.984375 	0.5 	39.917 	-0.140467 	1.0115e-19
-0.109375 	-0.984375 	0.5 	39.9212 	-0.141219 	-1.90339e-21
-0.09375 	-0.984375 	0.5 	39.9253 	-0.141622 	-3.52452e-20
-0.078125 	-0.984375 	0.5 	39.9297 	-0.142003 	-8.72083e-20
-0.0625 	-0.984375 	0.5 	39.9339 	-0.142284 	-1.12159e-19
-0.046875 	-0.984375 	0.5 	39.9381 	-0.142611 	-1.25036e-19
-0.03125 	-0.984375 	0.5 	39.9425 	-0.142464 	-8.31362e-20
-0.015625 	-0.984375 	0.5 	39.9468 	-0.142317 	-4.12358e-20
0 	-0.984375 	0.5 	39.9511 	-0.14177 	-1.04572e-20
0.015625 	-0.984375 	0.5 	39.9553 	-0.141587 	-5.40106e-20
0.03125 	-0.984375 	0.5 	39.9596 	-0.140607 	-6.38675e-20
0.046875 	-0.984375 	0.5 	39.964 	-0.138977 	-1.43187e-20
0.0625 	-0.984375 	0.5 	39.9673 	-0.139122 	1.39196e-20
0.078125 	-0.984375 	0.5 	39.9716 	-0.138168 	4.69873e-20
0.09375 	-0.984375 	0.5 	39.9759 	-0.135898 	3.01626e-20
0.109375 	-0.984375 	0.5 	39.9802 	-0.133832 	8.0179e-21
0.125 	-0.984375 	0.5 	39.9829 	-0.131757 	-9.34521e-21
0.140625 	-0.984375 	0.5 	39.9866 	-0.129345 	7.47141e-20
0.15625 	-0.984375 	0.5 	39.9898 	-0.127374 	2.64059e-20
0.171875 	-0.984375 	0.5 	39.9935 	-0.125079 	8.35549e-20
0.1875 	-0.984375 	0.5 	39.9965 	-0.122601 	1.28893e-20
0.203125 	-0.984375 	0.5 	39.9997 	-0.119795 	-4.65774e-20
0.21875 	-0.984375 	0.5 	40.0025 	-0.117189 	-6.67392e-20
0.234375 	-0.984375 	0.5 	40.0052 	-0.114178 	2.3544e-20
0.25 	-0.984375 	0.5 	40.0079 	-0.111304 	1.08296e-20
0.265625 	-0.984375 	0.5 	40.0103 	-0.108428 	3.43917e-20
0.28125 	-0.984375 	0.5 	40.0127 	-0.104855 	8.30702e-20
0.296875 	-0.984375 	0.5 	40.0142 	-0.101554 	2.12177e-19
0.3125 	-0.984375 	0.5 	40.0164 	-0.0987268 	5.6078e-20
0.328125 	-0.984375 	0.5 	40.018 	-0.0954099 	1.27554e-19
0.34375 	-0.984375 	0.5 	40.0192 	-0.0917968 	5.4218e-20
0.359375 	-0.984375 	0.5 	40.0207 	-0.0885214 	-8.35661e-20
0.375 	-0.984375 	0.5 	40.0216 	-0.0852636 	-2.77354e-20
0.390625 	-0.984375 	0.5 	40.0225 	-0.081928 	-6.15908e-21
0.40625 	-0.984375 	0.5 	40.0232 	-0.0785467 	2.66337e-20
0.421875 	-0.984375 	0.5 	40.0236 	-0.0755895 	1.55605e-20
0.4375 	-0.984375 	0.5 	40.024 	-0.0720348 	5.53448e-20
0.453125 	-0.984375 	0.5 	40.0244 	-0.0690591 	-7.04351e-20
0.46875 	-0.984375 	0.5 	40.0246 	-0.0656473 	-6.32341e-20
0.484375 	-0.984375 	0.5 	40.0244 	-0.0621336 	-1.67472e-20
0.5 	-0.984375 	0.5 	40.0241 	-0.0591912 	2.69286e-21
0.515625 	-0.984375 	0.5 	40.0239 	-0.0563971 	-1.49205e-19
0.53125 	-0.984375 	0.5 	40.0233 	-0.0531983 	2.25432e-19
0.546875 	-0.984375 	0.5 	40.0224 	-0.0501138 	5.35803e-20
0.5625 	-0.984375 	0.5 	40.0217 	-0.0474391 	-1.01975e-19
0.578125 	-0.984375 	0.5 	40.0208 	-0.0448714 	-1.93199e-19
0.59375 	-0.984375 	0.5 	40.02 	-0.0421523 	1.01563e-19
0.609375 	-0.984375 	0.5 	40.0188 	-0.0399462 	-6.75644e-20
0.625 	-0.984375 	0.5 	40.0174 	-0.0372491 	-9.37923e-20
0.640625 	-0.984375 	0.5 	40.0161 	-0.0347058 	-2.7131e-20
0.65625 	-0.984375 	0.5 	40.0147 	-0.0324682 	-1.85035e-19
0.671875 	-0.984375 	0.5 	40.0133 	-0.0306304 	-1.613e-19
0.6875 	-0.984375 	0.5 	40.0117 	-0.0287711 	4.44524e-20
0.703125 	-0.984375 	0.5 	40.0101 	-0.0270227 	-3.76484e-20
0.71875 	-0.984375 	0.5 	40.0084 	-0.0251686 	-6.71926e-21
0.734375 	-0.984375 	0.5 	40.0066 	-0.0235699 	9.32725e-21
0.75 	-0.984375 	0.5 	40.0048 	-0.0219557 	8.39505e-21
0.765625 	-0.984375 	0.5 	40.0032 	-0.0205872 	5.43728e-20
0.78125 	-0.984375 	0.5 	40.0014 	-0.0193336 	-2.89172e-20
0.796875 	-0.984375 	0.5 	39.9996 	-0.0180935 	-3.32794e-20
0.8125 	-0.984375 	0.5 	39.9978 	-0.0172743 	-1.83035e-20
0.828125 	-0.984375 	0.5 	39.9958 	-0.0165396 	2.33088e-20
0.84375 	-0.984375 	0.5 	39.9942 	-0.0155065 	-6.21293e-20
0.859375 	-0.984375 	0.5 	39.9923 	-0.0145443 	1.02395e-20
0.875 	-0.984375 	0.5 	39.9903 	-0.0137457 	4.65458e-21
0.890625 	-0.984375 	0.5 	39.9883 	-0.0137386 	-9.72189e-21
0.90625 	-0.984375 	0.5 	39.9862 	-0.0136068 	-1.02883e-20
0.921875 	-0.984375 	0.5 	39.9843 	-0.0133587 	9.00392e-21
0.9375 	-0.984375 	0.5 	39.9826 	-0.0126393 	7.48226e-20
0.953125 	-0.984375 	0.5 	39.9808 	-0.0124962 	-5.49147e-20
0.96875 	-0.984375 	0.5 	39.9789 	-0.012384 	-3.37001e-20
0.984375 	-0.984375 	0.5 	39.9771 	-0.0123254 	1.68553e-20
1 	-0.984375 	0.5 	39.9753 	-0.0127098 	2.73634e-20
1.01562 	-0.984375 	0.5 	39.9736 	-0.0130512 	2.49395e-20
1.03125 	-0.984375 	0.5 	39.9719 	-0.0134379 	2.50805e-20
1.04688 	-0.984375 	0.5 	39.9704 	-0.0135717 	1.2049e-20
1.0625 	-0.984375 	0.5 	39.969 	-0.013895 	5.89905e-21
1.07812 	-0.984375 	0.5 	39.9674 	-0.0146298 	5.9505e-21
1.09375 	-0.984375 	0.5 	39.966 	-0.0151344 	4.29435e-21
1.10938 	-0.984375 	0.5 	39.9648 	-0.0156617 	-2.76326e-20
1.125 	-0.984375 	0.5 	39.9634 	-0.0163909 	2.93472e-20
1.14062 	-0.984375 	0.5 	39.9621 	-0.0173427 	-6.79314e-21
1.15625 	-0.984375 	0.5 	39.9607 	-0.0180024 	1.01643e-19
1.17188 	-0.984375 	0.5 	39.9595 	-0.0189307 	2.40457e-19
1.1875 	-0.984375 	0.5 	39.9582 	-0.0198777 	1.15059e-19
1.20312 	-0.984375 	0.5 	39.957 	-0.0207471 	-6.2187e-20
1.21875 	-0.984375 	0.5 	39.9562 	-0.0216423 	-1.17149e-19
1.23438 	-0.984375 	0.5 	39.9554 	-0.0225956 	3.80054e-20
1.25 	-0.984375 	0.5 	39.9545 	-0.0235308 	1.17666e-19
1.26562 	-0.984375 	0.5 	39.9535 	-0.0246359 	-4.07522e-21
1.28125 	-0.984375 	0.5 	39.9528 	-0.0257119 	-6.60258e-20
1.29688 	-0.984375 	0.5 	39.9522 	-0.0267256 	-4.46718e-20
1.3125 	-0.984375 	0.5 	39.9516 	-0.0277564 	-4.23647e-20
1.32812 	-0.984375 	0.5 	39.9507 	-0.0289366 	-1.20895e-20
1.34375 	-0.984375 	0.5 	39.9497 	-0.0305852 	1.28223e-20
1.35938 	-0.984375 	0.5 	39.9498 	-0.0314933 	4.12255e-21
1.375 	-0.984375 	0.5 	39.9494 	-0.0332163 	7.9968e-21
1.39062 	-0.984375 	0.5 	39.9491 	-0.0340389 	-2.10845e-20
1.40625 	-0.984375 	0.5 	39.9489 	-0.0354108 	7.08233e-20
1.42188 	-0.984375 	0.5 	39.9485 	-0.0364887 	1.15077e-19
1.4375 	-0.984375 	0.5 	39.9482 	-0.0375619 	-9.70261e-20
1.45312 	-0.984375 	0.5 	39.9477 	-0.0386803 	-1.52955e-19
1.46875 	-0.984375 	0.5 	39.9478 	-0.03986 	5.06316e-20
1.48438 	-0.984375 	0.5 	39.948 	-0.040937 	2.87034e-19
-0.5 	-0.96875 	0.5 	39.8436 	-0.0821184 	1.37884e-19
-0.484375 	-0.96875 	0.5 	39.8454 	-0.0851472 	-9.51976e-21
-0.46875 	-0.96875 	0.5 	39.8468 	-0.0888431 	-1.04941e-19
-0.453125 	-0.96875 	0.5 	39.8489 	-0.0923366 	-3.92968e-20
-0.4375 	-0.96875 	0.5 	39.8507 	-0.0954585 	-3.01084e-20
-0.421875 	-0.96875 	0.5 	39.8527 	-0.0989919 	1.5381e-20
-0.40625 	-0.96875 	0.5 	39.8548 	-0.102261 	8.20947e-20
-0.390625 	-0.96875 	0.5 	39.8572 	-0.105204 	1.35006e-19
-0.375 	-0.96875 	0.5 	39.8596 	-0.10883 	4.5153e-20
-0.359375 	-0.96875 	0.5 	39.8622 	-0.112228 	2.26048e-21
-0.34375 	-0.96875 	0.5 	39.8653 	-0.115009 	-8.4346e-22
-0.328125 	-0.96875 	0.5 	39.8685 	-0.117972 	-2.72184e-21
-0.3125 	-0.96875 	0.5 	39.8716 	-0.121143 	-2.79555e-23
-0.296875 	-0.96875 	0.5 	39.8747 	-0.124903 	2.78322e-21
-0.28125 	-0.96875 	0.5 	39.8774 	-0.12811 	1.59001e-20
-0.265625 	-0.96875 	0.5 	39.8802 	-0.128959 	7.12019e-20
-0.25 	-0.96875 	0.5 	39.8835 	-0.130644 	2.27254e-19
-0.234375 	-0.96875 	0.5 	39.8868 	-0.13252 	-3.19181e-20
-0.21875 	-0.96875 	0.5 	39.8906 	-0.135421 	-2.1861e-20
-0.203125 	-0.96875 	0.5 	39.8949 	-0.137164 	1.17662e-19
-0.1875 	-0.96875 	0.5 	39.8991 	-0.1389 	9.5876e-20
-0.171875 	-0.96875 	0.5 	39.9033 	-0.140741 	3.78009e-20
-0.15625 	-0.96875 	0.5 	39.9074 	-0.142176 	1.41403e-20
-0.140625 	-0.96875 	0.5 	39.9115 	-0.143205 	1.13559e-21
-0.125 	-0.96875 	0.5 	39.9156 	-0.144246 	-1.17178e-20
-0.109375 	-0.96875 	0.5 	39.9198 	-0.145312 	-1.16932e-20
-0.09375 	-0.96875 	0.5 	39.9243 	-0.145867 	-6.3512e-20
-0.078125 	-0.96875 	0.5 	39.9287 	-0.14628 	-1.20383e-19
-0.0625 	-0.96875 	0.5 	39.9335 	-0.14681 	-9.79362e-20
-0.046875 	-0.96875 	0.5 	39.9378 	-0.146724 	-1.20222e-19
-0.03125 	-0.96875 	0.5 	39.9416 	-0.146351 	-2.03487e-19
-0.015625 	-0.96875 	0.5 	39.9469 	-0.146625 	3.07547e-20
0 	-0.96875 	0.5 	39.9513 	-0.146193 	1.54466e-21
0.015625 	-0.96875 	0.5 	39.9559 	-0.145372 	-3.21374e-20
0.03125 	-0.96875 	0.5 	39.9602 	-0.145267 	-7.97963e-20
0.046875 	-0.96875 	0.5 	39.9642 	-0.144013 	-3.45388e-20
0.0625 	-0.96875 	0.5 	39.9691 	-0.143056 	-5.20774e-22
0.078125 	-0.96875 	0.5 	39.973 	-0.141987 	3.80703e-20
0.09375 	-0.96875 	0.5 	39.9772 	-0.13962 	-5.91345e-20
0.109375 	-0.96875 	0.5 	39.9815 	-0.137538 	1.07279e-20
0.125 	-0.96875 	0.5 	39.9853 	-0.135314 	-2.33893e-22
0.140625 	-0.96875 	0.5 	39.9887 	-0.13319 	-2.61589e-21
0.15625 	-0.96875 	0.5 	39.9919 	-0.130923 	-1.11973e-19
0.171875 	-0.96875 	0.5 	39.9952 	-0.128585 	3.90668e-20
0.1875 	-0.96875 	0.5 	39.9989 	-0.125664 	4.16922e-21
0.203125 	-0.96875 	0.5 	40.0023 	-0.12281 	4.20155e-22
0.21875 	-0.96875 	0.5 	40.0051 	-0.120051 	2.608e-20
0.234375 	-0.96875 	0.5 	40.008 	-0.116818 	7.04852e-20
0.25 	-0.96875 	0.5 	40.0107 	-0.113875 	2.78597e-21
0.265625 	-0.96875 	0.5 	40.0132 	-0.110468 	5.93407e-22
0.28125 	-0.96875 	0.5 	40.0158 	-0.106863 	1.02047e-20
0.296875 	-0.96875 	0.5 	40.0177 	-0.103657 	1.06113e-20
0.3125 	-0.96875 	0.5 	40.0191 	-0.100347 	-6.60212e-20
0.328125 	-0.96875 	0.5 	40.0208 	-0.0967563 	3.12229e-20
0.34375 	-0.96875 	0.5 	40.0227 	-0.0938582 	2.55415e-19
0.359375 	-0.96875 	0.5 	40.0235 	-0.0897631 	-4.37595e-21
0.375 	-0.96875 	0.5 	40.0247 	-0.0861431 	-8.00058e-20
0.390625 	-0.96875 	0.5 	40.0254 	-0.0826309 	-2.90672e-20
0.40625 	-0.96875 	0.5 	40.0262 	-0.0790984 	3.43762e-20
0.421875 	-0.96875 	0.5 	40.0266 	-0.0755989 	7.28267e-20
0.4375 	-0.96875 	0.5 	40.027 	-0.0720397 	9.74174e-20
0.453125 	-0.96875 	0.5 	40.0276 	-0.0688632 	1.14713e-20
0.46875 	-0.96875 	0.5 	40.0276 	-0.0652581 	3.28633e-21
0.484375 	-0.96875 	0.5 	40.0272 	-0.0613022 	1.18027e-21
0.5 	-0.96875 	0.5 	40.027 	-0.0586997 	3.02928e-21
0.515625 	-0.96875 	0.5 	40.0266 	-0.0557232 	1.01172e-19
0.53125 	-0.96875 	0.5 	40.0257 	-0.0524574 	9.537e-20
0.546875 	-0.96875 	0.5 	40.0249 	-0.0492069 	5.57488e-20
0.5625 	-0.96875 	0.5 	40.0241 	-0.0465109 	1.68087e-20
0.578125 	-0.96875 	0.5 	40.0233 	-0.0439073 	-2.13995e-20
0.59375 	-0.96875 	0.5 	40.0223 	-0.040946 	2.06106e-20
0.609375 	-0.96875 	0.5 	40.0211 	-0.0384696 	5.55602e-20
0.625 	-0.96875 	0.5 	40.0197 	-0.0357622 	2.56192e-20
0.640625 	-0.96875 	0.5 	40.0183 	-0.0331359 	-6.42599e-20
0.65625 	-0.96875 	0.5 	40.0167 	-0.0307903 	-2.12604e-20
0.671875 	-0.96875 	0.5 	40.0153 	-0.0289988 	-2.49526e-20
0.6875 	-0.96875 	0.5 	40.0136 	-0.0272896 	-2.84566e-20
0.703125 	-0.96875 	0.5 	40.0117 	-0.02535 	-4.1565e-20
0.71875 	-0.96875 	0.5 	40.01 	-0.0233779 	-2.33466e-20
0.734375 	-0.96875 	0.5 	40.008 	-0.0215938 	2.82244e-20
0.75 	-0.96875 	0.5 	40.006 	-0.0200252 	1.44144e-20
0.765625 	-0.96875 	0.5 	40.0043 	-0.0186238 	-8.07177e-21
0.78125 	-0.96875 	0.5 	40.0023 	-0.0172057 	-1.04166e-22
0.796875 	-0.96875 	0.5 	40.0004 	-0.0159605 	-1.13104e-19
0.8125 	-0.96875 	0.5 	39.9984 	-0.0149262 	-6.82746e-20
0.828125 	-0.96875 	0.5 	39.9968 	-0.014638 	-1.33872e-20
0.84375 	-0.96875 	0.5 	39.9945 	-0.0137964 	1.10609e-19
0.859375 	-0.96875 	0.5 	39.9926 	-0.0125512 	-4.21411e-20
0.875 	-0.96875 	0.5 	39.9904 	-0.0119384 	1.38687e-20
0.890625 	-0.96875 	0.5 	39.9884 	-0.0115034 	8.69249e-21
0.90625 	-0.96875 	0.5 	39.9864 	-0.0114139 	-7.9047e-23
0.921875 	-0.96875 	0.5 	39.9846 	-0.0111851 	1.8579e-20
0.9375 	-0.96875 	0.5 	39.9826 	-0.0110036 	3.06208e-20
0.953125 	-0.96875 	0.5 	39.9806 	-0.0108532 	6.64154e-20
0.96875 	-0.96875 	0.5 	39.9787 	-0.0106887 	1.01886e-19
0.984375 	-0.96875 	0.5 	39.9767 	-0.0105202 	2.0662e-20
1 	-0.96875 	0.5 	39.9749 	-0.0106662 	8.97436e-21
1.01562 	-0.96875 	0.5 	39.9731 	-0.010845 	4.78404e-21
1.03125 	-0.96875 	0.5 	39.9714 	-0.0114872 	3.88007e-20
1.04688 	-0.96875 	0.5 	39.9697 	-0.012139 	1.94604e-20
1.0625 	-0.96875 	0.5 	39.9682 	-0.0124181 	1.17021e-20
1.07812 	-0.96875 	0.5 	39.9667 	-0.0130398 	2.66159e-21
1.09375 	-0.96875 	0.5 	39.9652 	-0.0136737 	1.18752e-22
1.10938 	-0.96875 	0.5 	39.9637 	-0.0142973 	1.36878e-20
1.125 	-0.96875 	0.5 	39.9624 	-0.0151639 	2.50143e-20
1.14062 	-0.96875 	0.5 	39.961 	-0.0160455 	2.97288e-20
1.15625 	-0.96875 	0.5 	39.9597 	-0.0169705 	1.78396e-20
1.17188 	-0.96875 	0.5 	39.9584 	-0.0179092 	-6.74081e-21
1.1875 	-0.96875 	0.5 	39.9571 	-0.018848 	-3.13212e-20
1.20312 	-0.96875 	0.5 	39.9559 	-0.0197322 	-3.80809e-20
1.21875 	-0.96875 	0.5 	39.9549 	-0.0207608 	-1.12428e-20
1.23438 	-0.96875 	0.5 	39.9541 	-0.0217099 	5.15773e-20
1.25 	-0.96875 	0.5 	39.9533 	-0.022659 	1.14397e-19
1.26562 	-0.96875 	0.5 	39.9522 	-0.0237148 	4.75166e-20
1.28125 	-0.96875 	0.5 	39.9515 	-0.0247996 	-3.01764e-20
1.29688 	-0.96875 	0.5 	39.9508 	-0.0259206 	-4.7631e-20
1.3125 	-0.96875 	0.5 	39.9501 	-0.0271775 	-4.95186e-20
1.32812 	-0.96875 	0.5 	39.9494 	-0.0286689 	-2.01644e-20
1.34375 	-0.96875 	0.5 	39.9485 	-0.0299785 	9.09706e-21
1.35938 	-0.96875 	0.5 	39.9483 	-0.0310727 	5.61986e-21
1.375 	-0.96875 	0.5 	39.9482 	-0.0324875 	3.90731e-21
1.39062 	-0.96875 	0.5 	39.948 	-0.0339722 	3.46438e-21
1.40625 	-0.96875 	0.5 	39.9477 	-0.0352418 	1.35165e-20
1.42188 	-0.96875 	0.5 	39.9471 	-0.0363277 	-1.23317e-19
1.4375 	-0.96875 	0.5 	39.9467 	-0.0374523 	-1.64621e-19
1.45312 	-0.96875 	0.5 	39.9463 	-0.0385837 	-1.89557e-19
1.46875 	-0.96875 	0.5 	39.9463 	-0.0397788 	7.70979e-21
1.48438 	-0.96875 	0.5 	39.9463 	-0.0409652 	1.11867e-20
-0.5 	-0.953125 	0.5 	39.8399 	-0.0833835 	3.76702e-20
-0.484375 	-0.953125 	0.5 	39.8413 	-0.0869086 	-1.09879e-19
-0.46875 	-0.953125 	0.5 	39.8431 	-0.0905711 	-1.07178e-19
-0.453125 	-0.953125 	0.5 	39.8451 	-0.0942136 	-4.56439e-20
-0.4375 	-0.953125 	0.5 	39.8471 	-0.0977291 	-2.17787e-20
-0.421875 	-0.953125 	0.5 	39.8493 	-0.101758 	2.23159e-21
-0.40625 	-0.953125 	0.5 	39.8512 	-0.104953 	5.62535e-20
-0.390625 	-0.953125 	0.5 	39.8536 	-0.108044 	7.84785e-20
-0.375 	-0.953125 	0.5 	39.8561 	-0.111768 	-5.12562e-20
-0.359375 	-0.953125 	0.5 	39.8588 	-0.115217 	-5.14087e-20
-0.34375 	-0.953125 	0.5 	39.8614 	-0.117892 	-1.44761e-20
-0.328125 	-0.953125 	0.5 	39.8647 	-0.120945 	-1.57405e-20
-0.3125 	-0.953125 	0.5 	39.8676 	-0.124319 	-5.52867e-21
-0.296875 	-0.953125 	0.5 	39.8711 	-0.126853 	2.58574e-21
-0.28125 	-0.953125 	0.5 	39.8747 	-0.130019 	4.27481e-21
-0.265625 	-0.953125 	0.5 	39.8774 	-0.132044 	2.879e-20
-0.25 	-0.953125 	0.5 	39.8805 	-0.13372 	3.95909e-20
-0.234375 	-0.953125 	0.5 	39.885 	-0.135563 	-2.25035e-19
-0.21875 	-0.953125 	0.5 	39.8885 	-0.138917 	-9.74098e-20
-0.203125 	-0.953125 	0.5 	39.8924 	-0.141308 	6.31791e-20
-0.1875 	-0.953125 	0.5 	39.8966 	-0.143176 	-2.95872e-21
-0.171875 	-0.953125 	0.5 	39.9013 	-0.145071 	-3.96981e-20
-0.15625 	-0.953125 	0.5 	39.9061 	-0.146677 	1.76281e-20
-0.140625 	-0.953125 	0.5 	39.91 	-0.147799 	-8.01789e-20
-0.125 	-0.953125 	0.5 	39.9141 	-0.148833 	-9.61852e-20
-0.109375 	-0.953125 	0.5 	39.9188 	-0.149746 	8.27044e-20
-0.09375 	-0.953125 	0.5 	39.9245 	-0.150741 	1.92359e-22
-0.078125 	-0.953125 	0.5 	39.9286 	-0.151084 	-1.03641e-19
-0.0625 	-0.953125 	0.5 	39.9331 	-0.150727 	-2.35059e-20
-0.046875 	-0.953125 	0.5 	39.9381 	-0.151289 	-1.06926e-20
-0.03125 	-0.953125 	0.5 	39.9427 	-0.151491 	1.47443e-20
-0.015625 	-0.953125 	0.5 	39.9465 	-0.150523 	1.74726e-19
0 	-0.953125 	0.5 	39.9515 	-0.151173 	1.51969e-20
0.015625 	-0.953125 	0.5 	39.9559 	-0.149915 	-1.22153e-20
0.03125 	-0.953125 	0.5 	39.9607 	-0.149418 	-6.35303e-20
0.046875 	-0.953125 	0.5 	39.9655 	-0.147943 	-4.71327e-20
0.0625 	-0.953125 	0.5 	39.9702 	-0.14686 	-1.14759e-20
0.078125 	-0.953125 	0.5 	39.9744 	-0.145788 	2.64465e-20
0.09375 	-0.953125 	0.5 	39.9786 	-0.143587 	7.7693e-21
0.109375 	-0.953125 	0.5 	39.9827 	-0.141653 	4.29148e-21
0.125 	-0.953125 	0.5 	39.9875 	-0.14044 	3.86512e-21
0.140625 	-0.953125 	0.5 	39.991 	-0.136878 	-5.61676e-20
0.15625 	-0.953125 	0.5 	39.9941 	-0.134003 	-1.47853e-19
0.171875 	-0.953125 	0.5 	39.9974 	-0.132072 	6.04876e-20
0.1875 	-0.953125 	0.5 	40.0012 	-0.129568 	8.7494e-20
0.203125 	-0.953125 	0.5 	40.0048 	-0.126562 	6.60863e-20
0.21875 	-0.953125 	0.5 	40.0078 	-0.123018 	-2.61189e-20
0.234375 	-0.953125 	0.5 	40.0105 	-0.11977 	-1.32424e-19
0.25 	-0.953125 	0.5 	40.0136 	-0.116643 	1.33547e-22
0.265625 	-0.953125 	0.5 	40.0163 	-0.113095 	4.16568e-22
0.28125 	-0.953125 	0.5 	40.0189 	-0.10919 	2.97001e-21
0.296875 	-0.953125 	0.5 	40.0206 	-0.105073 	-5.47824e-20
0.3125 	-0.953125 	0.5 	40.0222 	-0.101684 	-1.24326e-20
0.328125 	-0.953125 	0.5 	40.0237 	-0.0982871 	-3.56045e-20
0.34375 	-0.953125 	0.5 	40.0252 	-0.0948273 	3.4151e-20
0.359375 	-0.953125 	0.5 	40.0269 	-0.0909611 	-2.4357e-19
0.375 	-0.953125 	0.5 	40.0284 	-0.0870414 	-4.53454e-20
0.390625 	-0.953125 	0.5 	40.0291 	-0.0836451 	-2.60439e-20
0.40625 	-0.953125 	0.5 	40.0296 	-0.0801706 	1.11908e-19
0.421875 	-0.953125 	0.5 	40.0302 	-0.0758246 	8.98797e-20
0.4375 	-0.953125 	0.5 	40.0306 	-0.0721572 	1.06103e-19
0.453125 	-0.953125 	0.5 	40.0308 	-0.0689922 	3.08637e-20
0.46875 	-0.953125 	0.5 	40.0306 	-0.065328 	5.96685e-20
0.484375 	-0.953125 	0.5 	40.0303 	-0.0618116 	8.0866e-20
0.5 	-0.953125 	0.5 	40.0302 	-0.0585479 	1.97871e-20
0.515625 	-0.953125 	0.5 	40.0294 	-0.0551583 	-1.08044e-20
0.53125 	-0.953125 	0.5 	40.029 	-0.0519865 	1.19697e-19
0.546875 	-0.953125 	0.5 	40.028 	-0.0485097 	7.83904e-20
0.5625 	-0.953125 	0.5 	40.0269 	-0.0454808 	8.22094e-21
0.578125 	-0.953125 	0.5 	40.0261 	-0.0428527 	-2.08775e-20
0.59375 	-0.953125 	0.5 	40.0245 	-0.0395249 	5.00762e-20
0.609375 	-0.953125 	0.5 	40.0234 	-0.0370511 	4.04739e-20
0.625 	-0.953125 	0.5 	40.022 	-0.034235 	-4.53051e-20
0.640625 	-0.953125 	0.5 	40.021 	-0.0319481 	-1.76441e-19
0.65625 	-0.953125 	0.5 	40.0193 	-0.0297138 	-2.47244e-20
0.671875 	-0.953125 	0.5 	40.0172 	-0.0275625 	-6.9688e-20
0.6875 	-0.953125 	0.5 	40.0153 	-0.0253244 	-3.55597e-20
0.703125 	-0.953125 	0.5 	40.0135 	-0.0234066 	2.29091e-20
0.71875 	-0.953125 	0.5 	40.0116 	-0.0214644 	-5.14693e-20
0.734375 	-0.953125 	0.5 	40.0095 	-0.0198161 	-3.34917e-20
0.75 	-0.953125 	0.5 	40.0073 	-0.0181031 	3.17863e-20
0.765625 	-0.953125 	0.5 	40.0054 	-0.0163981 	9.99605e-20
0.78125 	-0.953125 	0.5 	40.0033 	-0.0149823 	9.76636e-20
0.796875 	-0.953125 	0.5 	40.0012 	-0.0140361 	-6.53643e-20
0.8125 	-0.953125 	0.5 	39.9993 	-0.0131406 	-3.51192e-20
0.828125 	-0.953125 	0.5 	39.9967 	-0.0117073 	-5.67372e-21
0.84375 	-0.953125 	0.5 	39.9949 	-0.0115972 	1.32981e-20
0.859375 	-0.953125 	0.5 	39.9926 	-0.0109942 	-1.74928e-19
0.875 	-0.953125 	0.5 	39.9906 	-0.00983918 	-6.41905e-21
0.890625 	-0.953125 	0.5 	39.9885 	-0.0097127 	1.42533e-20
0.90625 	-0.953125 	0.5 	39.9865 	-0.00920476 	7.85202e-21
0.921875 	-0.953125 	0.5 	39.9847 	-0.00919371 	6.93716e-20
0.9375 	-0.953125 	0.5 	39.9825 	-0.00889305 	3.94217e-20
0.953125 	-0.953125 	0.5 	39.9803 	-0.008929 	2.17888e-21
0.96875 	-0.953125 	0.5 	39.9782 	-0.0087044 	6.0807e-20
0.984375 	-0.953125 	0.5 	39.9764 	-0.00871492 	1.90888e-20
1 	-0.953125 	0.5 	39.9746 	-0.00891813 	7.25868e-21
1.01562 	-0.953125 	0.5 	39.9727 	-0.00903918 	-4.09489e-21
1.03125 	-0.953125 	0.5 	39.971 	-0.00956935 	3.04786e-20
1.04688 	-0.953125 	0.5 	39.9692 	-0.010253 	2.71674e-20
1.0625 	-0.953125 	0.5 	39.9675 	-0.0109258 	1.62327e-20
1.07812 	-0.953125 	0.5 	39.9659 	-0.0115495 	8.54874e-21
1.09375 	-0.953125 	0.5 	39.9643 	-0.0121723 	-7.24453e-22
1.10938 	-0.953125 	0.5 	39.9627 	-0.0129304 	5.38848e-21
1.125 	-0.953125 	0.5 	39.9614 	-0.0139978 	-3.41608e-20
1.14062 	-0.953125 	0.5 	39.96 	-0.0146179 	6.1248e-20
1.15625 	-0.953125 	0.5 	39.9584 	-0.0155982 	2.17358e-20
1.17188 	-0.953125 	0.5 	39.9571 	-0.016845 	-8.5156e-20
1.1875 	-0.953125 	0.5 	39.9559 	-0.0174439 	-1.77148e-20
1.20312 	-0.953125 	0.5 	39.9546 	-0.0185306 	-2.09936e-20
1.21875 	-0.953125 	0.5 	39.9536 	-0.0198215 	-3.22565e-20
1.23438 	-0.953125 	0.5 	39.953 	-0.0211941 	-1.63695e-19
1.25 	-0.953125 	0.5 	39.952 	-0.0220812 	-9.64312e-20
1.26562 	-0.953125 	0.5 	39.9509 	-0.0229102 	-5.37377e-21
1.28125 	-0.953125 	0.5 	39.95 	-0.024094 	-1.79591e-20
1.29688 	-0.953125 	0.5 	39.9491 	-0.0255053 	-1.68269e-19
1.3125 	-0.953125 	0.5 	39.9487 	-0.0266492 	-4.54961e-20
1.32812 	-0.953125 	0.5 	39.9479 	-0.0279299 	-1.11772e-19
1.34375 	-0.953125 	0.5 	39.9472 	-0.0295455 	-2.1716e-20
1.35938 	-0.953125 	0.5 	39.9467 	-0.0309929 	1.2845e-20
1.375 	-0.953125 	0.5 	39.9465 	-0.03233 	8.02767e-21
1.39062 	-0.953125 	0.5 	39.9463 	-0.0336672 	3.2103e-21
1.40625 	-0.953125 	0.5 	39.946 	-0.0349002 	4.68848e-22
1.42188 	-0.953125 	0.5 	39.9455 	-0.0358197 	-3.86348e-21
1.4375 	-0.953125 	0.5 	39.9452 	-0.0370674 	-1.84752e-20
1.45312 	-0.953125 	0.5 	39.9449 	-0.0383151 	-3.3087e-20
1.46875 	-0.953125 	0.5 	39.9448 	-0.0396993 	-4.53331e-20
1.48438 	-0.953125 	0.5 	39.9449 	-0.0409169 	-9.13652e-20
-0.5 	-0.9375 	0.5 	39.8361 	-0.0849495 	-1.85811e-20
-0.484375 	-0.9375 	0.5 	39.8377 	-0.0886274 	-4.31063e-20
-0.46875 	-0.9375 	0.5 	39.8393 	-0.0923054 	-6.76314e-20
-0.453125 	-0.9375 	0.5 	39.8412 	-0.0959841 	-3.94102e-20
-0.4375 	-0.9375 	0.5 	39.8432 	-0.100177 	-5.8352e-21
-0.421875 	-0.9375 	0.5 	39.8455 	-0.104025 	-5.08766e-21
-0.40625 	-0.9375 	0.5 	39.8475 	-0.107646 	3.04124e-20
-0.390625 	-0.9375 	0.5 	39.85 	-0.111057 	-2.69844e-20
-0.375 	-0.9375 	0.5 	39.8527 	-0.114621 	-1.37097e-19
-0.359375 	-0.9375 	0.5 	39.8553 	-0.118052 	-1.20203e-19
-0.34375 	-0.9375 	0.5 	39.8579 	-0.121322 	-2.44155e-20
-0.328125 	-0.9375 	0.5 	39.8611 	-0.124245 	-2.65554e-20
-0.3125 	-0.9375 	0.5 	39.8636 	-0.12749 	-1.11053e-20
-0.296875 	-0.9375 	0.5 	39.867 	-0.1301 	-2.07418e-21
-0.28125 	-0.9375 	0.5 	39.8707 	-0.132528 	4.78601e-21
-0.265625 	-0.9375 	0.5 	39.8746 	-0.134799 	9.00831e-21
-0.25 	-0.9375 	0.5 	39.8782 	-0.137281 	-1.92452e-20
-0.234375 	-0.9375 	0.5 	39.882 	-0.140217 	-1.43936e-21
-0.21875 	-0.9375 	0.5 	39.8858 	-0.143142 	-5.54643e-22
-0.203125 	-0.9375 	0.5 	39.8901 	-0.145696 	-2.24449e-20
-0.1875 	-0.9375 	0.5 	39.8948 	-0.147574 	-7.47034e-20
-0.171875 	-0.9375 	0.5 	39.8991 	-0.149545 	-4.16616e-20
-0.15625 	-0.9375 	0.5 	39.9043 	-0.150826 	2.69685e-20
-0.140625 	-0.9375 	0.5 	39.9094 	-0.152672 	1.18997e-20