-0.5 	-1 	0.5 	39.4706 	0.0787885 	2.87147e-20
-0.484375 	-1 	0.5 	39.4709 	0.0721766 	1.01524e-19
-0.46875 	-1 	0.5 	39.4719 	0.0660425 	9.48588e-20
-0.453125 	-1 	0.5 	39.4734 	0.0601889 	1.70541e-20
-0.4375 	-1 	0.5 	39.4746 	0.0527038 	-1.15781e-21
-0.421875 	-1 	0.5 	39.4761 	0.0444616 	-6.94564e-22
-0.40625 	-1 	0.5 	39.4784 	0.0379735 	1.09727e-20
-0.390625 	-1 	0.5 	39.4803 	0.0314409 	3.38036e-20
-0.375 	-1 	0.5 	39.4822 	0.0248058 	3.9544e-20
-0.359375 	-1 	0.5 	39.4846 	0.0178955 	1.15025e-19
-0.34375 	-1 	0.5 	39.4867 	0.0106549 	7.53357e-20
-0.328125 	-1 	0.5 	39.4901 	0.0054197 	5.40761e-20
-0.3125 	-1 	0.5 	39.4936 	-0.0025517 	4.18155e-20
-0.296875 	-1 	0.5 	39.4975 	-0.00850878 	3.19261e-20
-0.28125 	-1 	0.5 	39.5026 	-0.0136969 	2.09645e-21
-0.265625 	-1 	0.5 	39.5068 	-0.0213844 	5.0051e-20
-0.25 	-1 	0.5 	39.5117 	-0.0271774 	5.45057e-20
-0.234375 	-1 	0.5 	39.5165 	-0.0324504 	4.7789e-21
-0.21875 	-1 	0.5 	39.5219 	-0.037866 	3.52315e-20
-0.203125 	-1 	0.5 	39.528 	-0.0433475 	1.00013e-19
-0.1875 	-1 	0.5 	39.534 	-0.0483595 	1.02573e-19
-0.171875 	-1 	0.5 	39.5399 	-0.0522966 	2.43347e-20
-0.15625 	-1 	0.5 	39.5462 	-0.0563334 	7.8294e-20
-0.140625 	-1 	0.5 	39.553 	-0.0603403 	7.21663e-20
-0.125 	-1 	0.5 	39.5597 	-0.0638987 	-4.08924e-20
-0.109375 	-1 	0.5 	39.5667 	-0.0660452 	-4.84187e-20
-0.09375 	-1 	0.5 	39.5738 	-0.0691004 	-1.51759e-20
-0.078125 	-1 	0.5 	39.581 	-0.0723717 	4.66952e-20
-0.0625 	-1 	0.5 	39.5884 	-0.0753108 	9.76686e-20
-0.046875 	-1 	0.5 	39.5954 	-0.0759056 	5.01607e-21
-0.03125 	-1 	0.5 	39.6023 	-0.0763631 	-5.96167e-20
-0.015625 	-1 	0.5 	39.6107 	-0.0765958 	-8.73754e-20
0 	-1 	0.5 	39.6178 	-0.0776014 	7.00955e-20
0.015625 	-1 	0.5 	39.6252 	-0.0774746 	1.21059e-20
0.03125 	-1 	0.5 	39.633 	-0.0752578 	2.90034e-20
0.046875 	-1 	0.5 	39.6407 	-0.0744917 	-9.25485e-20
0.0625 	-1 	0.5 	39.6482 	-0.0728273 	-3.90295e-20
0.078125 	-1 	0.5 	39.6555 	-0.0715124 	5.8523e-22
0.09375 	-1 	0.5 	39.662 	-0.0691492 	-5.0125e-22
0.109375 	-1 	0.5 	39.6693 	-0.0659471 	-1.77929e-22
0.125 	-1 	0.5 	39.6766 	-0.0643201 	-2.89303e-20
0.140625 	-1 	0.5 	39.6832 	-0.0603412 	-2.88768e-22
0.15625 	-1 	0.5 	39.6892 	-0.0549286 	-4.353e-22
0.171875 	-1 	0.5 	39.6947 	-0.0511243 	5.98848e-21
0.1875 	-1 	0.5 	39.701 	-0.0458512 	-5.12798e-20
0.203125 	-1 	0.5 	39.7057 	-0.0402951 	-9.15654e-20
0.21875 	-1 	0.5 	39.7102 	-0.0344083 	1.89636e-19
0.234375 	-1 	0.5 	39.7147 	-0.0275594 	1.16309e-19
0.25 	-1 	0.5 	39.7186 	-0.0214404 	1.08623e-19
0.265625 	-1 	0.5 	39.7224 	-0.0157121 	5.51926e-20
0.28125 	-1 	0.5 	39.7259 	-0.00925676 	3.73777e-20
0.296875 	-1 	0.5 	39.7284 	-0.00235256 	-1.74955e-20
0.3125 	-1 	0.5 	39.731 	0.00455163 	-7.23687e-20
0.328125 	-1 	0.5 	39.7322 	0.0111748 	2.3662e-20
0.34375 	-1 	0.5 	39.7332 	0.0183505 	3.84455e-21
0.359375 	-1 	0.5 	39.7342 	0.0262435 	-1.60399e-20
0.375 	-1 	0.5 	39.735 	0.0327262 	1.16924e-21
0.390625 	-1 	0.5 	39.7348 	0.0409985 	-6.46105e-20
0.40625 	-1 	0.5 	39.7344 	0.0490816 	-7.3163e-21
0.421875 	-1 	0.5 	39.7326 	0.055481 	-1.65234e-19
0.4375 	-1 	0.5 	39.7305 	0.0637241 	2.90105e-19
0.453125 	-1 	0.5 	39.7286 	0.071156 	-5.51877e-20
0.46875 	-1 	0.5 	39.726 	0.0783746 	-2.53201e-20
0.484375 	-1 	0.5 	39.7228 	0.0863007 	-3.48917e-21
0.5 	-1 	0.5 	39.7184 	0.0922849 	-4.07225e-21
0.515625 	-1 	0.5 	39.7142 	0.0981681 	-2.94888e-21
0.53125 	-1 	0.5 	39.7095 	0.103808 	-5.92109e-21
0.546875 	-1 	0.5 	39.7048 	0.109436 	-5.23107e-21
0.5625 	-1 	0.5 	39.6997 	0.114771 	7.21667e-21
0.578125 	-1 	0.5 	39.6923 	0.120151 	3.04934e-20
0.59375 	-1 	0.5 	39.686 	0.126466 	-1.60712e-20
0.609375 	-1 	0.5 	39.6795 	0.130754 	2.53995e-20
0.625 	-1 	0.5 	39.6728 	0.134445 	-1.16164e-20
0.640625 	-1 	0.5 	39.6649 	0.138264 	-2.88686e-20
0.65625 	-1 	0.5 	39.6572 	0.142121 	2.65709e-20
0.671875 	-1 	0.5 	39.65 	0.143475 	-2.19927e-20
0.6875 	-1 	0.5 	39.6416 	0.145857 	-2.07108e-20
0.703125 	-1 	0.5 	39.6335 	0.146649 	-8.49426e-20
0.71875 	-1 	0.5 	39.6254 	0.149034 	-1.20303e-19
0.734375 	-1 	0.5 	39.6165 	0.150134 	8.74589e-20
0.75 	-1 	0.5 	39.6074 	0.149945 	5.69306e-20
0.765625 	-1 	0.5 	39.599 	0.149332 	3.35437e-21
0.78125 	-1 	0.5 	39.5902 	0.148575 	-2.7826e-20
0.796875 	-1 	0.5 	39.5818 	0.147373 	-4.70942e-21
0.8125 	-1 	0.5 	39.5734 	0.146327 	8.36868e-21
0.828125 	-1 	0.5 	39.5643 	0.143868 	9.35707e-20
0.84375 	-1 	0.5 	39.5554 	0.141322 	1.36166e-19
0.859375 	-1 	0.5 	39.5483 	0.138765 	1.41851e-20
0.875 	-1 	0.5 	39.5412 	0.135002 	-2.23022e-20
0.890625 	-1 	0.5 	39.5329 	0.130863 	-3.87301e-20
0.90625 	-1 	0.5 	39.5228 	0.129381 	-7.84994e-20
0.921875 	-1 	0.5 	39.5164 	0.122623 	-6.17168e-20
0.9375 	-1 	0.5 	39.5112 	0.11622 	-3.15565e-20
0.953125 	-1 	0.5 	39.504 	0.110877 	-7.56812e-21
0.96875 	-1 	0.5 	39.4958 	0.106467 	-8.32168e-20
0.984375 	-1 	0.5 	39.4894 	0.100328 	-4.04596e-20
1 	-1 	0.5 	39.4825 	0.0932342 	2.06396e-21
1.01562 	-1 	0.5 	39.4771 	0.0846412 	-9.09003e-20
1.03125 	-1 	0.5 	39.4715 	0.0790945 	-3.51914e-20
1.04688 	-1 	0.5 	39.4661 	0.0713481 	-1.58413e-20
1.0625 	-1 	0.5 	39.4606 	0.0634831 	-2.08691e-20
1.07812 	-1 	0.5 	39.4557 	0.0558485 	-2.34575e-20
1.09375 	-1 	0.5 	39.4508 	0.0472651 	-5.80738e-20
1.10938 	-1 	0.5 	39.4482 	0.0383419 	1.25977e-19
1.125 	-1 	0.5 	39.4447 	0.0298695 	1.6613e-19
1.14062 	-1 	0.5 	39.4421 	0.0227265 	-7.94034e-20
1.15625 	-1 	0.5 	39.4392 	0.0152449 	-6.47351e-20
1.17188 	-1 	0.5 	39.4377 	0.00603507 	-6.02542e-20
1.1875 	-1 	0.5 	39.4359 	-0.00192025 	-5.82164e-20
1.20312 	-1 	0.5 	39.4338 	-0.00932239 	-3.96951e-20
1.21875 	-1 	0.5 	39.4321 	-0.0175116 	-1.7783e-20
1.23438 	-1 	0.5 	39.4299 	-0.0263085 	4.99044e-20
1.25 	-1 	0.5 	39.4286 	-0.0358375 	4.20772e-20
1.26562 	-1 	0.5 	39.4281 	-0.0455286 	8.58812e-21
1.28125 	-1 	0.5 	39.4288 	-0.0538681 	8.23201e-22
1.29688 	-1 	0.5 	39.4296 	-0.0620442 	-6.88845e-21
1.3125 	-1 	0.5 	39.43 	-0.0703693 	-3.83134e-21
1.32812 	-1 	0.5 	39.4309 	-0.0788518 	1.48316e-20
1.34375 	-1 	0.5 	39.4318 	-0.0873077 	2.56985e-20
1.35938 	-1 	0.5 	39.4327 	-0.0955823 	5.36875e-21
1.375 	-1 	0.5 	39.4345 	-0.103673 	-1.78152e-20
1.39062 	-1 	0.5 	39.436 	-0.113537 	3.77005e-21
1.40625 	-1 	0.5 	39.439 	-0.121572 	2.58001e-20
1.42188 	-1 	0.5 	39.4416 	-0.129097 	2.42463e-20
1.4375 	-1 	0.5 	39.4443 	-0.13633 	7.19226e-20
1.45312 	-1 	0.5 	39.4468 	-0.142072 	1.73985e-20
1.46875 	-1 	0.5 	39.4506 	-0.150643 	2.4666e-20
1.48438 	-1 	0.5 	39.4545 	-0.160586 	4.03096e-20
-0.5 	-0.984375 	0.5 	39.462 	0.078871 	1.08215e-20
-0.484375 	-0.984375 	0.5 	39.462 	0.0719485 	4.89522e-20
-0.46875 	-0.984375 	0.5 	39.4631 	0.0658733 	2.73613e-20
-0.453125 	-0.984375 	0.5 	39.4643 	0.0579384 	5.71581e-21
-0.4375 	-0.984375 	0.5 	39.4654 	0.0506373 	-9.92316e-22
-0.421875 	-0.984375 	0.5 	39.4665 	0.0446578 	-3.3053e-21
-0.40625 	-0.984375 	0.5 	39.4686 	0.0366311 	4.30664e-21
-0.390625 	-0.984375 	0.5 	39.4713 	0.0297131 	5.4862e-21
-0.375 	-0.984375 	0.5 	39.4741 	0.0219554 	-3.49496e-20
-0.359375 	-0.984375 	0.5 	39.4768 	0.0144177 	5.63682e-20
-0.34375 	-0.984375 	0.5 	39.479 	0.00733475 	7.16687e-20
-0.328125 	-0.984375 	0.5 	39.4824 	0.00199678 	4.30023e-20
-0.3125 	-0.984375 	0.5 	39.4859 	-0.00579582 	3.49073e-20
-0.296875 	-0.984375 	0.5 	39.4899 	-0.0128886 	2.9632e-20
-0.28125 	-0.984375 	0.5 	39.4947 	-0.0190091 	1.67813e-20
-0.265625 	-0.984375 	0.5 	39.4993 	-0.0254921 	1.77434e-20
-0.25 	-0.984375 	0.5 	39.5043 	-0.0313066 	-4.83472e-20
-0.234375 	-0.984375 	0.5 	39.5098 	-0.0377227 	-5.43733e-20
-0.21875 	-0.984375 	0.5 	39.5156 	-0.0437755 	1.38199e-20
-0.203125 	-0.984375 	0.5 	39.5207 	-0.0489273 	3.23052e-21
-0.1875 	-0.984375 	0.5 	39.5277 	-0.0535986 	2.58195e-20
-0.171875 	-0.984375 	0.5 	39.5346 	-0.0581733 	3.90871e-20
-0.15625 	-0.984375 	0.5 	39.5413 	-0.0624911 	1.61647e-20
-0.140625 	-0.984375 	0.5 	39.548 	-0.0668089 	-6.75764e-21
-0.125 	-0.984375 	0.5 	39.5548 	-0.0707656 	-2.8288e-20
-0.109375 	-0.984375 	0.5 	39.5627 	-0.0739935 	-4.69948e-20
-0.09375 	-0.984375 	0.5 	39.57 	-0.0771255 	-3.99863e-20
-0.078125 	-0.984375 	0.5 	39.5767 	-0.0789784 	-7.69587e-20
-0.0625 	-0.984375 	0.5 	39.5845 	-0.081245 	-7.04637e-20
-0.046875 	-0.984375 	0.5 	39.5927 	-0.0834256 	-3.9985e-20
-0.03125 	-0.984375 	0.5 	39.6008 	-0.0842547 	-3.5259e-20
-0.015625 	-0.984375 	0.5 	39.6091 	-0.0850087 	-2.62862e-20
0 	-0.984375 	0.5 	39.6173 	-0.0857826 	-1.53961e-20
0.015625 	-0.984375 	0.5 	39.6253 	-0.0838185 	4.16616e-21
0.03125 	-0.984375 	0.5 	39.6336 	-0.0821288 	1.91659e-20
0.046875 	-0.984375 	0.5 	39.6412 	-0.0812243 	-7.49644e-20
0.0625 	-0.984375 	0.5 	39.6487 	-0.0795593 	-1.72326e-20
0.078125 	-0.984375 	0.5 	39.6562 	-0.0785016 	3.91709e-20
0.09375 	-0.984375 	0.5 	39.664 	-0.0760492 	-5.19231e-20
0.109375 	-0.984375 	0.5 	39.6713 	-0.0732125 	-4.09101e-20
0.125 	-0.984375 	0.5 	39.6785 	-0.0708016 	-5.59098e-20
0.140625 	-0.984375 	0.5 	39.6854 	-0.0665941 	-2.62173e-20
0.15625 	-0.984375 	0.5 	39.6926 	-0.0625254 	-2.04834e-21
0.171875 	-0.984375 	0.5 	39.6991 	-0.0572005 	-6.78946e-20
0.1875 	-0.984375 	0.5 	39.7056 	-0.05116 	-1.23584e-19
0.203125 	-0.984375 	0.5 	39.7109 	-0.0463918 	-1.50207e-19
0.21875 	-0.984375 	0.5 	39.7153 	-0.0391829 	-4.41677e-20
0.234375 	-0.984375 	0.5 	39.7204 	-0.0319377 	-8.52048e-21
0.25 	-0.984375 	0.5 	39.7258 	-0.0262504 	-1.70406e-19
0.265625 	-0.984375 	0.5 	39.7292 	-0.0197641 	1.33419e-21
0.28125 	-0.984375 	0.5 	39.7334 	-0.0123533 	-1.08243e-20
0.296875 	-0.984375 	0.5 	39.7354 	-0.00626318 	2.59521e-19
0.3125 	-0.984375 	0.5 	39.7373 	0.00149763 	1.6352e-19
0.328125 	-0.984375 	0.5 	39.7392 	0.00975863 	-3.96664e-20
0.34375 	-0.984375 	0.5 	39.74 	0.0178011 	-2.66318e-20
0.359375 	-0.984375 	0.5 	39.7407 	0.0256554 	-5.593e-20
0.375 	-0.984375 	0.5 	39.7414 	0.0331523 	-9.00181e-20
0.390625 	-0.984375 	0.5 	39.7412 	0.0415298 	-1.3164e-20
0.40625 	-0.984375 	0.5 	39.7409 	0.049782 	6.19526e-20
0.421875 	-0.984375 	0.5 	39.7394 	0.0576175 	2.12029e-19
0.4375 	-0.984375 	0.5 	39.7369 	0.0660072 	2.30893e-19
0.453125 	-0.984375 	0.5 	39.7345 	0.0743049 	1.98198e-19
0.46875 	-0.984375 	0.5 	39.7319 	0.0816161 	7.00323e-21
0.484375 	-0.984375 	0.5 	39.7283 	0.0881529 	3.58747e-21
0.5 	-0.984375 	0.5 	39.7247 	0.0954313 	2.05074e-21
0.515625 	-0.984375 	0.5 	39.7195 	0.103238 	5.33611e-22
0.53125 	-0.984375 	0.5 	39.7145 	0.109662 	1.33022e-20
0.546875 	-0.984375 	0.5 	39.7103 	0.115274 	3.33836e-21
0.5625 	-0.984375 	0.5 	39.7037 	0.121587 	1.00301e-20
0.578125 	-0.984375 	0.5 	39.6967 	0.126501 	3.63103e-20
0.59375 	-0.984375 	0.5 	39.6898 	0.132651 	-1.93717e-20
0.609375 	-0.984375 	0.5 	39.6831 	0.137402 	-1.91817e-20
0.625 	-0.984375 	0.5 	39.6768 	0.14155 	-8.86409e-21
0.640625 	-0.984375 	0.5 	39.6684 	0.145131 	-1.20508e-20
0.65625 	-0.984375 	0.5 	39.6599 	0.148947 	-4.2288e-20
0.671875 	-0.984375 	0.5 	39.6511 	0.151836 	-3.38629e-20
0.6875 	-0.984375 	0.5 	39.6422 	0.153989 	-3.1682e-20
0.703125 	-0.984375 	0.5 	39.6336 	0.156109 	-3.69474e-20
0.71875 	-0.984375 	0.5 	39.6247 	0.157055 	6.72446e-20
0.734375 	-0.984375 	0.5 	39.6158 	0.158048 	1.36172e-19
0.75 	-0.984375 	0.5 	39.6073 	0.158664 	4.46858e-20
0.765625 	-0.984375 	0.5 	39.5983 	0.15891 	1.83055e-21
0.78125 	-0.984375 	0.5 	39.5891 	0.158067 	-2.57485e-20
0.796875 	-0.984375 	0.5 	39.5804 	0.156809 	-2.01457e-20
0.8125 	-0.984375 	0.5 	39.5708 	0.155309 	-1.02438e-22
0.828125 	-0.984375 	0.5 	39.5615 	0.153147 	1.03077e-19
0.84375 	-0.984375 	0.5 	39.5529 	0.150003 	7.57559e-20
0.859375 	-0.984375 	0.5 	39.5442 	0.146044 	4.12242e-20
0.875 	-0.984375 	0.5 	39.5358 	0.142466 	-5.70892e-21
0.890625 	-0.984375 	0.5 	39.5277 	0.139235 	-6.06881e-20
0.90625 	-0.984375 	0.5 	39.519 	0.134359 	-3.4646e-20
0.921875 	-0.984375 	0.5 	39.5124 	0.128992 	-2.47645e-20
0.9375 	-0.984375 	0.5 	39.5038 	0.124521 	-6.51866e-21
0.953125 	-0.984375 	0.5 	39.4966 	0.118814 	3.45238e-21
0.96875 	-0.984375 	0.5 	39.49 	0.112698 	-1.48579e-20
0.984375 	-0.984375 	0.5 	39.4825 	0.106857 	1.06226e-19
1 	-0.984375 	0.5 	39.4751 	0.0998022 	1.13632e-19
1.01562 	-0.984375 	0.5 	39.4694 	0.0915762 	-3.13073e-20
1.03125 	-0.984375 	0.5 	39.4637 	0.0833943 	-1.97349e-20
1.04688 	-0.984375 	0.5 	39.4577 	0.0765167 	-7.40536e-21
1.0625 	-0.984375 	0.5 	39.4533 	0.066701 	1.73831e-22
1.07812 	-0.984375 	0.5 	39.4477 	0.058486 	3.23039e-23
1.09375 	-0.984375 	0.5 	39.443 	0.0503364 	3.77237e-20
1.10938 	-0.984375 	0.5 	39.4396 	0.0419592 	4.30528e-20
1.125 	-0.984375 	0.5 	39.4362 	0.033582 	4.8382e-20
1.14062 	-0.984375 	0.5 	39.4328 	0.0252047 	5.37112e-20
1.15625 	-0.984375 	0.5 	39.4305 	0.0172555 	-2.32358e-20
1.17188 	-0.984375 	0.5 	39.4285 	0.00897758 	-2.94046e-20
1.1875 	-0.984375 	0.5 	39.4265 	0.000372405 	-4.45236e-20
1.20312 	-0.984375 	0.5 	39.4239 	-0.00774145 	-3.22755e-20
1.21875 	-0.984375 	0.5 	39.4226 	-0.0175251 	-5.51052e-20
1.23438 	-0.984375 	0.5 	39.4208 	-0.0261137 	4.72382e-20
1.25 	-0.984375 	0.5 	39.4195 	-0.0356116 	4.26163e-20
1.26562 	-0.984375 	0.5 	39.419 	-0.0451301 	1.88828e-20
1.28125 	-0.984375 	0.5 	39.4199 	-0.0532353 	1.17907e-20
1.29688 	-0.984375 	0.5 	39.4199 	-0.0620429 	4.01629e-20
1.3125 	-0.984375 	0.5 	39.4209 	-0.0714488 	-8.63363e-21
1.32812 	-0.984375 	0.5 	39.4226 	-0.0794707 	6.72832e-20
1.34375 	-0.984375 	0.5 	39.4231 	-0.0882087 	4.75623e-20
1.35938 	-0.984375 	0.5 	39.4245 	-0.0977973 	4.75068e-20
1.375 	-0.984375 	0.5 	39.4263 	-0.105585 	-2.34555e-20
1.39062 	-0.984375 	0.5 	39.4281 	-0.11545 	1.60971e-20
1.40625 	-0.984375 	0.5 	39.4312 	-0.1236 	5.43237e-20
1.42188 	-0.984375 	0.5 	39.4339 	-0.1314 	4.31948e-20
1.4375 	-0.984375 	0.5 	39.4364 	-0.139068 	1.34228e-20
1.45312 	-0.984375 	0.5 	39.4394 	-0.146467 	2.00484e-20
1.46875 	-0.984375 	0.5 	39.4434 	-0.155098 	1.64535e-20
1.48438 	-0.984375 	0.5 	39.4472 	-0.163366 	1.00138e-20
-0.5 	-0.96875 	0.5 	39.4531 	0.0785888 	1.2667e-20
-0.484375 	-0.96875 	0.5 	39.4532 	0.0718628 	1.96485e-20
-0.46875 	-0.96875 	0.5 	39.454 	0.0645169 	1.66694e-20
-0.453125 	-0.96875 	0.5 	39.4551 	0.057321 	1.01559e-20
-0.4375 	-0.96875 	0.5 	39.4562 	0.0501251 	3.64225e-21
-0.421875 	-0.96875 	0.5 	39.4573 	0.0429292 	-2.87135e-21
-0.40625 	-0.96875 	0.5 	39.4595 	0.0352284 	-9.21017e-21
-0.390625 	-0.96875 	0.5 	39.4626 	0.0271647 	-1.76323e-20
-0.375 	-0.96875 	0.5 	39.4652 	0.01916 	-6.90461e-20
-0.359375 	-0.96875 	0.5 	39.4682 	0.0119958 	-9.58672e-20
-0.34375 	-0.96875 	0.5 	39.4712 	0.00388252 	2.11718e-21
-0.328125 	-0.96875 	0.5 	39.4744 	-0.00331761 	2.05801e-20
-0.3125 	-0.96875 	0.5 	39.4782 	-0.0113488 	6.18186e-20
-0.296875 	-0.96875 	0.5 	39.4822 	-0.0179035 	1.6008e-20
-0.28125 	-0.96875 	0.5 	39.4866 	-0.0240491 	-1.44288e-21
-0.265625 	-0.96875 	0.5 	39.4919 	-0.0307391 	4.93538e-20
-0.25 	-0.96875 	0.5 	39.498 	-0.0372122 	-7.02219e-20
-0.234375 	-0.96875 	0.5 	39.5039 	-0.0435524 	7.55473e-21
-0.21875 	-0.96875 	0.5 	39.5096 	-0.048195 	2.26241e-20
-0.203125 	-0.96875 	0.5 	39.5154 	-0.0550772 	5.01253e-20
-0.1875 	-0.96875 	0.5 	39.5219 	-0.0594286 	2.47135e-20
-0.171875 	-0.96875 	0.5 	39.5285 	-0.0649589 	2.28515e-20
-0.15625 	-0.96875 	0.5 	39.536 	-0.0700776 	2.17876e-20
-0.140625 	-0.96875 	0.5 	39.5426 	-0.0746888 	-2.26571e-21
-0.125 	-0.96875 	0.5 	39.5501 	-0.0780441 	-3.16089e-20
-0.109375 	-0.96875 	0.5 	39.5587 	-0.0805818 	-4.66349e-20
-0.09375 	-0.96875 	0.5 	39.5666 	-0.0835682 	-4.43094e-20
-0.078125 	-0.96875 	0.5 	39.5737 	-0.085561 	-6.54344e-20
-0.0625 	-0.96875 	0.5 	39.5823 	-0.0880169 	-2.12358e-20
-0.046875 	-0.96875 	0.5 	39.5901 	-0.0919613 	5.26279e-20
-0.03125 	-0.96875 	0.5 	39.5996 	-0.0933513 	-2.25283e-19
-0.015625 	-0.96875 	0.5 	39.608 	-0.0941038 	-3.01454e-19
0 	-0.96875 	0.5 	39.6164 	-0.093875 	1.24814e-19
0.015625 	-0.96875 	0.5 	39.6239 	-0.0946524 	-1.69242e-21
0.03125 	-0.96875 	0.5 	39.6338 	-0.0908966 	1.05598e-20
0.046875 	-0.96875 	0.5 	39.6422 	-0.0892537 	8.10643e-20
0.0625 	-0.96875 	0.5 	39.6498 	-0.0885013 	1.56456e-19
0.078125 	-0.96875 	0.5 	39.6582 	-0.0867927 	1.28918e-19
0.09375 	-0.96875 	0.5 	39.6663 	-0.0844696 	-4.72988e-20
0.109375 	-0.96875 	0.5 	39.6736 	-0.0816198 	-6.4978e-20
0.125 	-0.96875 	0.5 	39.6816 	-0.0780491 	-4.24568e-20
0.140625 	-0.96875 	0.5 	39.69 	-0.0724661 	-1.64632e-19
0.15625 	-0.96875 	0.5 	39.6968 	-0.0692062 	2.94631e-20
0.171875 	-0.96875 	0.5 	39.7035 	-0.0630606 	1.53798e-19
0.1875 	-0.96875 	0.5 	39.7099 	-0.0571383 	4.85449e-20
0.203125 	-0.96875 	0.5 	39.7163 	-0.051336 	-9.81375e-21
0.21875 	-0.96875 	0.5 	39.7211 	-0.0446675 	-5.51301e-21
0.234375 	-0.96875 	0.5 	39.7265 	-0.0373738 	-8.87607e-21
0.25 	-0.96875 	0.5 	39.732 	-0.0300393 	-5.76158e-20
0.265625 	-0.96875 	0.5 	39.7357 	-0.0230569 	-1.00671e-19
0.28125 	-0.96875 	0.5 	39.7399 	-0.0156473 	-1.13284e-19
0.296875 	-0.96875 	0.5 	39.7436 	-0.00846705 	1.03715e-19
0.3125 	-0.96875 	0.5 	39.7455 	-0.000693994 	5.45046e-21
0.328125 	-0.96875 	0.5 	39.7472 	0.00775238 	-2.41664e-19
0.34375 	-0.96875 	0.5 	39.749 	0.0163056 	-6.05386e-20
0.359375 	-0.96875 	0.5 	39.7494 	0.0243676 	-1.09732e-19
0.375 	-0.96875 	0.5 	39.7497 	0.0337242 	-9.48685e-20
0.390625 	-0.96875 	0.5 	39.7505 	0.0414825 	-2.69597e-19
0.40625 	-0.96875 	0.5 	39.7491 	0.050285 	9.44685e-20
0.421875 	-0.96875 	0.5 	39.7475 	0.0595202 	9.25972e-20
0.4375 	-0.96875 	0.5 	39.7449 	0.0676246 	1.72021e-19
0.453125 	-0.96875 	0.5 	39.7427 	0.0761568 	4.22809e-21
0.46875 	-0.96875 	0.5 	39.7389 	0.0844578 	-7.88067e-20
0.484375 	-0.96875 	0.5 	39.7348 	0.0930152 	9.65089e-21
0.5 	-0.96875 	0.5 	39.7311 	0.100308 	8.27058e-21
0.515625 	-0.96875 	0.5 	39.7255 	0.107876 	1.00869e-21
0.53125 	-0.96875 	0.5 	39.721 	0.115838 	-1.38351e-20
0.546875 	-0.96875 	0.5 	39.7152 	0.122466 	-1.10061e-20
0.5625 	-0.96875 	0.5 	39.7087 	0.127639 	9.22075e-21
0.578125 	-0.96875 	0.5 	39.7022 	0.133427 	2.5708e-20
0.59375 	-0.96875 	0.5 	39.6948 	0.139142 	1.20069e-19
0.609375 	-0.96875 	0.5 	39.6878 	0.144541 	1.08151e-19
0.625 	-0.96875 	0.5 	39.6799 	0.150075 	-3.91079e-21
0.640625 	-0.96875 	0.5 	39.6711 	0.153538 	-1.0497e-19
0.65625 	-0.96875 	0.5 	39.6631 	0.157842 	-2.63337e-20
0.671875 	-0.96875 	0.5 	39.6533 	0.160062 	-1.21061e-21
0.6875 	-0.96875 	0.5 	39.6443 	0.162215 	-5.04411e-20
0.703125 	-0.96875 	0.5 	39.6356 	0.165356 	4.91223e-20
0.71875 	-0.96875 	0.5 	39.6257 	0.167182 	-1.19291e-19
0.734375 	-0.96875 	0.5 	39.6167 	0.167763 	-3.74576e-20
0.75 	-0.96875 	0.5 	39.6071 	0.168052 	3.46934e-20
0.765625 	-0.96875 	0.5 	39.5976 	0.167673 	1.19587e-20
0.78125 	-0.96875 	0.5 	39.5882 	0.167356 	-7.28317e-21
0.796875 	-0.96875 	0.5 	39.5783 	0.166073 	-1.10801e-20
0.8125 	-0.96875 	0.5 	39.5681 	0.164531 	-1.23364e-20
0.828125 	-0.96875 	0.5 	39.559 	0.162435 	1.90149e-20
0.84375 	-0.96875 	0.5 	39.5501 	0.159898 	-6.92246e-20
0.859375 	-0.96875 	0.5 	39.5401 	0.155484 	2.33337e-20
0.875 	-0.96875 	0.5 	39.5318 	0.149083 	1.01487e-19
0.890625 	-0.96875 	0.5 	39.5232 	0.146061 	2.21111e-20
0.90625 	-0.96875 	0.5 	39.5137 	0.142221 	-2.13912e-20
0.921875 	-0.96875 	0.5 	39.5052 	0.136891 	-2.92812e-20
0.9375 	-0.96875 	0.5 	39.4977 	0.131182 	-7.66275e-20
0.953125 	-0.96875 	0.5 	39.4904 	0.125597 	-6.19603e-20
0.96875 	-0.96875 	0.5 	39.4831 	0.119641 	5.96594e-20
0.984375 	-0.96875 	0.5 	39.475 	0.11336 	-7.45548e-20
1 	-0.96875 	0.5 	39.4677 	0.106174 	-6.19681e-20
1.01562 	-0.96875 	0.5 	39.4611 	0.0978893 	-2.80623e-21
1.03125 	-0.96875 	0.5 	39.4556 	0.0903796 	8.4228e-21
1.04688 	-0.96875 	0.5 	39.4494 	0.0817448 	3.24241e-22
1.0625 	-0.96875 	0.5 	39.4436 	0.073087 	2.37688e-22
1.07812 	-0.96875 	0.5 	39.4384 	0.0641808 	4.64999e-21
1.09375 	-0.96875 	0.5 	39.4331 	0.0550971 	1.64176e-20
1.10938 	-0.96875 	0.5 	39.4282 	0.0461715 	-1.86915e-19
1.125 	-0.96875 	0.5 	39.425 	0.0378053 	-1.77071e-19
1.14062 	-0.96875 	0.5 	39.423 	0.0296472 	2.30245e-20
1.15625 	-0.96875 	0.5 	39.4213 	0.019197 	8.28535e-20
1.17188 	-0.96875 	0.5 	39.418 	0.0101069 	-2.6332e-20
1.1875 	-0.96875 	0.5 	39.416 	0.00148814 	-4.22075e-20
1.20312 	-0.96875 	0.5 	39.4136 	-0.00737301 	-6.97132e-20
1.21875 	-0.96875 	0.5 	39.4124 	-0.0179751 	-1.67213e-19
1.23438 	-0.96875 	0.5 	39.4116 	-0.0265786 	-4.33764e-20
1.25 	-0.96875 	0.5 	39.4104 	-0.0353858 	4.31554e-20
1.26562 	-0.96875 	0.5 	39.4104 	-0.0442755 	5.15662e-20
1.28125 	-0.96875 	0.5 	39.4098 	-0.053592 	1.05623e-19
1.29688 	-0.96875 	0.5 	39.4106 	-0.0631028 	9.19917e-21
1.3125 	-0.96875 	0.5 	39.4121 	-0.0714574 	-9.73095e-20
1.32812 	-0.96875 	0.5 	39.4122 	-0.0818494 	3.47364e-20
1.34375 	-0.96875 	0.5 	39.4133 	-0.0908863 	4.91533e-20
1.35938 	-0.96875 	0.5 	39.4157 	-0.100782 	8.32789e-20
1.375 	-0.96875 	0.5 	39.4178 	-0.109214 	4.60776e-20
1.39062 	-0.96875 	0.5 	39.42 	-0.117283 	1.70476e-20
1.40625 	-0.96875 	0.5 	39.4227 	-0.125302 	1.80392e-20
1.42188 	-0.96875 	0.5 	39.4253 	-0.133481 	2.64627e-20
1.4375 	-0.96875 	0.5 	39.4281 	-0.141364 	2.08662e-20
1.45312 	-0.96875 	0.5 	39.4315 	-0.150201 	9.29424e-21
1.46875 	-0.96875 	0.5 	39.4355 	-0.157505 	9.55074e-21
1.48438 	-0.96875 	0.5 	39.4393 	-0.165481 	4.12912e-21
-0.5 	-0.953125 	0.5 	39.4443 	0.0789332 	-2.97614e-20
-0.484375 	-0.953125 	0.5 	39.4437 	0.0715147 	5.94986e-21
-0.46875 	-0.953125 	0.5 	39.445 	0.0631794 	4.071e-20
-0.453125 	-0.953125 	0.5 	39.4459 	0.0549653 	-9.01368e-22
-0.4375 	-0.953125 	0.5 	39.447 	0.0474723 	-5.7422e-21
-0.421875 	-0.953125 	0.5 	39.4481 	0.0408355 	-1.54044e-20
-0.40625 	-0.953125 	0.5 	39.451 	0.0315421 	-3.01736e-21
-0.390625 	-0.953125 	0.5 	39.4535 	0.0237643 	-1.34522e-20
-0.375 	-0.953125 	0.5 	39.4564 	0.0160977 	-6.80385e-20
-0.359375 	-0.953125 	0.5 	39.4594 	0.00821099 	-4.14445e-21
-0.34375 	-0.953125 	0.5 	39.4623 	0.000263931 	2.96958e-20
-0.328125 	-0.953125 	0.5 	39.4657 	-0.0073503 	-7.61227e-20
-0.3125 	-0.953125 	0.5 	39.4707 	-0.0152634 	-5.30242e-22
-0.296875 	-0.953125 	0.5 	39.4746 	-0.0229874 	2.25958e-20
-0.28125 	-0.953125 	0.5 	39.479 	-0.0290644 	-1.46514e-20
-0.265625 	-0.953125 	0.5 	39.4846 	-0.0363143 	9.12548e-20
-0.25 	-0.953125 	0.5 	39.4917 	-0.0432106 	4.46581e-20
-0.234375 	-0.953125 	0.5 	39.4979 	-0.0491091 	2.38803e-20
-0.21875 	-0.953125 	0.5 	39.5034 	-0.0574317 	1.10773e-19
-0.203125 	-0.953125 	0.5 	39.5087 	-0.0623358 	5.02017e-20
-0.1875 	-0.953125 	0.5 	39.515 	-0.0666348 	6.96374e-21
-0.171875 	-0.953125 	0.5 	39.522 	-0.0718041 	5.36577e-21
-0.15625 	-0.953125 	0.5 	39.5298 	-0.0766099 	1.93698e-21
-0.140625 	-0.953125 	0.5 	39.5375 	-0.0818659 	4.93508e-21
-0.125 	-0.953125 	0.5 	39.5454 	-0.0850249 	-1.54889e-20
-0.109375 	-0.953125 	0.5 	39.5541 	-0.0876311 	-1.41759e-20
-0.09375 	-0.953125 	0.5 	39.5627 	-0.0907221 	-1.5966e-20
-0.078125 	-0.953125 	0.5 	39.5708 	-0.093556 	-4.76443e-21
-0.0625 	-0.953125 	0.5 	39.5789 	-0.0966434 	1.88583e-20
-0.046875 	-0.953125 	0.5 	39.5881 	-0.100625 	1.77371e-19
-0.03125 	-0.953125 	0.5 	39.5979 	-0.102436 	4.14002e-20
-0.015625 	-0.953125 	0.5 	39.6062 	-0.103218 	-6.53123e-20
0 	-0.953125 	0.5 	39.6155 	-0.102042 	2.44278e-19
0.015625 	-0.953125 	0.5 	39.6258 	-0.102188 	4.32379e-20
0.03125 	-0.953125 	0.5 	39.6336 	-0.100427 	2.82224e-20
0.046875 	-0.953125 	0.5 	39.6414 	-0.0993189 	7.99178e-20
0.0625 	-0.953125 	0.5 	39.6503 	-0.0976114 	1.91142e-19
0.078125 	-0.953125 	0.5 	39.6594 	-0.0951914 	1.13832e-19
0.09375 	-0.953125 	0.5 	39.6684 	-0.0928013 	2.50089e-20
0.109375 	-0.953125 	0.5 	39.6765 	-0.0894187 	3.0598e-21
0.125 	-0.953125 	0.5 	39.6848 	-0.0856259 	-3.9235e-21
0.140625 	-0.953125 	0.5 	39.6927 	-0.0812788 	-4.92468e-21
0.15625 	-0.953125 	0.5 	39.7014 	-0.0755958 	7.22856e-20
0.171875 	-0.953125 	0.5 	39.7083 	-0.0703675 	1.29614e-19
0.1875 	-0.953125 	0.5 	39.7147 	-0.0643699 	3.78516e-20
0.203125 	-0.953125 	0.5 	39.7219 	-0.0578808 	-9.6601e-21
0.21875 	-0.953125 	0.5 	39.7279 	-0.049816 	-1.97296e-20
0.234375 	-0.953125 	0.5 	39.7332 	-0.0421873 	3.43698e-20
0.25 	-0.953125 	0.5 	39.7388 	-0.0346157 	-6.44223e-20
0.265625 	-0.953125 	0.5 	39.7439 	-0.0244384 	1.63314e-19
0.28125 	-0.953125 	0.5 	39.7476 	-0.0176761 	7.43131e-20
0.296875 	-0.953125 	0.5 	39.7513 	-0.0109233 	-1.51926e-20
0.3125 	-0.953125 	0.5 	39.7536 	-0.00271298 	-5.17093e-20
0.328125 	-0.953125 	0.5 	39.7556 	0.00567739 	-1.08901e-19
0.34375 	-0.953125 	0.5 	39.7574 	0.0150126 	-8.46262e-20
0.359375 	-0.953125 	0.5 	39.7583 	0.0249883 	1.67824e-21
0.375 	-0.953125 	0.5 	39.7585 	0.0342326 	-1.62894e-19
0.390625 	-0.953125 	0.5 	39.7586 	0.0425318 	-2.20437e-20
0.40625 	-0.953125 	0.5 	39.7574 	0.0519571 	4.66736e-19
0.421875 	-0.953125 	0.5 	39.7558 	0.0612667 	2.18273e-19
0.4375 	-0.953125 	0.5 	39.7536 	0.0698262 	5.40334e-20
0.453125 	-0.953125 	0.5 	39.7498 	0.0790704 	-2.61325e-19
0.46875 	-0.953125 	0.5 	39.7472 	0.0884967 	-4.09872e-20
0.484375 	-0.953125 	0.5 	39.7429 	0.0961662 	-4.33669e-20
0.5 	-0.953125 	0.5 	39.7388 	0.105327 	1.89987e-20
0.515625 	-0.953125 	0.5 	39.7335 	0.112999 	-7.13952e-21
0.53125 	-0.953125 	0.5 	39.7282 	0.120878 	-7.34781e-21
0.546875 	-0.953125 	0.5 	39.7214 	0.128701 	-4.52666e-20
0.5625 	-0.953125 	0.5 	39.7148 	0.134923 	-1.63869e-21
0.578125 	-0.953125 	0.5 	39.7081 	0.141002 	1.44811e-20
0.59375 	-0.953125 	0.5 	39.6994 	0.147233 	1.12261e-20
0.609375 	-0.953125 	0.5 	39.6919 	0.153467 	6.77168e-21
0.625 	-0.953125 	0.5 	39.6831 	0.158915 	-5.65068e-21
0.640625 	-0.953125 	0.5 	39.6747 	0.162671 	-2.10558e-20
0.65625 	-0.953125 	0.5 	39.6653 	0.165662 	1.73674e-21
0.671875 	-0.953125 	0.5 	39.6555 	0.167932 	2.17553e-20
0.6875 	-0.953125 	0.5 	39.6467 	0.170672 	1.61101e-20
0.703125 	-0.953125 	0.5 	39.6378 	0.174821 	1.15617e-19
0.71875 	-0.953125 	0.5 	39.6277 	0.176772 	-3.6801e-20
0.734375 	-0.953125 	0.5 	39.6178 	0.177901 	9.70726e-20
0.75 	-0.953125 	0.5 	39.6071 	0.178458 	6.52151e-20
0.765625 	-0.953125 	0.5 	39.5976 	0.178057 	1.71835e-20
0.78125 	-0.953125 	0.5 	39.5868 	0.177269 	-3.33143e-21
0.796875 	-0.953125 	0.5 	39.5765 	0.175892 	-8.95478e-23
0.8125 	-0.953125 	0.5 	39.5663 	0.17447 	-1.71014e-20
0.828125 	-0.953125 	0.5 	39.5561 	0.171796 	-6.64657e-20
0.84375 	-0.953125 	0.5 	39.5459 	0.168236 	-1.98401e-20
0.859375 	-0.953125 	0.5 	39.5362 	0.165012 	-1.37453e-20
0.875 	-0.953125 	0.5 	39.5272 	0.160469 	-8.22964e-21
0.890625 	-0.953125 	0.5 	39.5167 	0.155514 	-5.68458e-21
0.90625 	-0.953125 	0.5 	39.5082 	0.152165 	-1.45792e-20
0.921875 	-0.953125 	0.5 	39.4989 	0.145947 	4.89818e-20
0.9375 	-0.953125 	0.5 	39.4904 	0.140004 	1.08101e-20
0.953125 	-0.953125 	0.5 	39.483 	0.134417 	2.41674e-20
0.96875 	-0.953125 	0.5 	39.4746 	0.126598 	1.82593e-19
0.984375 	-0.953125 	0.5 	39.4658 	0.120768 	3.61634e-20
1 	-0.953125 	0.5 	39.459 	0.113214 	5.23395e-21
1.01562 	-0.953125 	0.5 	39.4529 	0.10436 	-1.3261e-21
1.03125 	-0.953125 	0.5 	39.4467 	0.0968501 	8.60577e-21
1.04688 	-0.953125 	0.5 	39.4407 	0.0880262 	-1.39394e-22
1.0625 	-0.953125 	0.5 	39.4346 	0.0782873 	8.98107e-21
1.07812 	-0.953125 	0.5 	39.4293 	0.0698363 	5.18231e-20
1.09375 	-0.953125 	0.5 	39.424 	0.0614569 	1.11849e-19
1.10938 	-0.953125 	0.5 	39.4188 	0.0508144 	-4.50718e-20
1.125 	-0.953125 	0.5 	39.4158 	0.042478 	-1.10788e-20
1.14062 	-0.953125 	0.5 	39.4128 	0.0332227 	1.06984e-19
1.15625 	-0.953125 	0.5 	39.4109 	0.0221346 	8.32867e-20
1.17188 	-0.953125 	0.5 	39.4083 	0.0124647 	6.54133e-20
1.1875 	-0.953125 	0.5 	39.405 	0.00303052 	-1.61265e-20
1.20312 	-0.953125 	0.5 	39.4036 	-0.0062502 	-7.6479e-21
1.21875 	-0.953125 	0.5 	39.4028 	-0.01598 	4.96997e-20
1.23438 	-0.953125 	0.5 	39.402 	-0.0258148 	1.06104e-19
1.25 	-0.953125 	0.5 	39.4009 	-0.0353329 	5.12868e-20
1.26562 	-0.953125 	0.5 	39.4009 	-0.0445985 	1.87482e-20
1.28125 	-0.953125 	0.5 	39.4009 	-0.0547217 	2.05897e-20
1.29688 	-0.953125 	0.5 	39.4014 	-0.0639802 	-2.72911e-20
1.3125 	-0.953125 	0.5 	39.402 	-0.0734916 	-8.58285e-21
1.32812 	-0.953125 	0.5 	39.4023 	-0.0831621 	2.62737e-20
1.34375 	-0.953125 	0.5 	39.4042 	-0.0927108 	3.33035e-20
1.35938 	-0.953125 	0.5 	39.4065 	-0.101562 	3.05223e-20
1.375 	-0.953125 	0.5 	39.4079 	-0.111341 	1.02255e-20
1.39062 	-0.953125 	0.5 	39.4114 	-0.119798 	-2.08337e-20
1.40625 	-0.953125 	0.5 	39.414 	-0.128005 	2.74785e-20
1.42188 	-0.953125 	0.5 	39.4167 	-0.13615 	3.42953e-20
1.4375 	-0.953125 	0.5 	39.4199 	-0.143547 	-2.75501e-20
1.45312 	-0.953125 	0.5 	39.4233 	-0.153021 	-1.89555e-20
1.46875 	-0.953125 	0.5 	39.4271 	-0.162556 	-1.13188e-21
1.48438 	-0.953125 	0.5 	39.431 	-0.170086 	-6.13987e-22
-0.5 	-0.9375 	0.5 	39.4347 	0.0784032 	-9.19535e-20
-0.484375 	-0.9375 	0.5 	39.4343 	0.0710618 	1.66568e-20
-0.46875 	-0.9375 	0.5 	39.4363 	0.0627254 	1.0568e-19
-0.453125 	-0.9375 	0.5 	39.437 	0.0540975 	3.67323e-20
-0.4375 	-0.9375 	0.5 	39.4378 	0.0456644 	-1.98844e-20
-0.421875 	-0.9375 	0.5 	39.4395 	0.0377317 	-1.85623e-20
-0.40625 	-0.9375 	0.5 	39.4422 	0.0293984 	-2.06128e-20
-0.390625 	-0.9375 	0.5 	39.4448 	0.0209778 	-1.59624e-20
-0.375 	-0.9375 	0.5 	39.4473 	0.0120682 	-1.53098e-20
-0.359375 	-0.9375 	0.5 	39.4503 	0.00424042 	3.2538e-20
-0.34375 	-0.9375 	0.5 	39.4531 	-0.00354903 	4.27137e-20
-0.328125 	-0.9375 	0.5 	39.4561 	-0.0110115 	-8.5617e-20
-0.3125 	-0.9375 	0.5 	39.4607 	-0.0189101 	-1.63005e-19
-0.296875 	-0.9375 	0.5 	39.466 	-0.0267731 	-8.14353e-20
-0.28125 	-0.9375 	0.5 	39.4716 	-0.0344396 	-2.08344e-20
-0.265625 	-0.9375 	0.5 	39.4774 	-0.0416584 	-5.4747e-21
-0.25 	-0.9375 	0.5 	39.4833 	-0.0488773 	9.885e-21
-0.234375 	-0.9375 	0.5 	39.4892 	-0.0560114 	9.62077e-21
-0.21875 	-0.9375 	0.5 	39.4962 	-0.0624965 	1.11942e-20
-0.203125 	-0.9375 	0.5 	39.5022 	-0.0709964 	1.07623e-19
-0.1875 	-0.9375 	0.5 	39.5078 	-0.0746096 	3.93391e-21
-0.171875 	-0.9375 	0.5 	39.5155 	-0.079343 	-1.19045e-21
-0.15625 	-0.9375 	0.5 	39.5234 	-0.0842256 	1.27654e-20
-0.140625 	-0.9375 	0.5 	39.5314 	-0.0903107 	1.13976e-20
-0.125 	-0.9375 	0.5 	39.5408 	-0.0935747 	-6.13346e-21
-0.109375 	-0.9375 	0.5 	39.5493 	-0.0983233 	4.53165e-20
-0.09375 	-0.9375 	0.5 	39.5584 	-0.0996905 	-1.48885e-20