-0.5 	-1 	0.5 	39.1881 	0.359665 	6.06061e-20
-0.484375 	-1 	0.5 	39.1844 	0.352043 	1.95378e-19
-0.46875 	-1 	0.5 	39.1807 	0.344442 	3.13915e-19
-0.453125 	-1 	0.5 	39.1764 	0.337506 	3.2789e-19
-0.4375 	-1 	0.5 	39.1714 	0.331092 	4.08201e-19
-0.421875 	-1 	0.5 	39.1663 	0.324678 	4.88513e-19
-0.40625 	-1 	0.5 	39.1615 	0.31821 	4.10776e-19
-0.390625 	-1 	0.5 	39.1579 	0.310797 	-1.13256e-19
-0.375 	-1 	0.5 	39.1547 	0.305102 	-1.62358e-18
-0.359375 	-1 	0.5 	39.1515 	0.297735 	-1.5525e-18
-0.34375 	-1 	0.5 	39.1483 	0.28975 	-9.78855e-19
-0.328125 	-1 	0.5 	39.1454 	0.28115 	1.02561e-19
-0.3125 	-1 	0.5 	39.1426 	0.274979 	1.27771e-19
-0.296875 	-1 	0.5 	39.1395 	0.267552 	1.87223e-19
-0.28125 	-1 	0.5 	39.1366 	0.258596 	-3.36758e-19
-0.265625 	-1 	0.5 	39.136 	0.25135 	5.35765e-20
-0.25 	-1 	0.5 	39.1358 	0.245371 	5.61989e-19
-0.234375 	-1 	0.5 	39.1339 	0.235705 	3.12428e-19
-0.21875 	-1 	0.5 	39.1315 	0.228245 	6.8462e-19
-0.203125 	-1 	0.5 	39.1295 	0.22157 	7.43112e-19
-0.1875 	-1 	0.5 	39.1295 	0.214548 	-1.13524e-19
-0.171875 	-1 	0.5 	39.1278 	0.206903 	-1.23305e-18
-0.15625 	-1 	0.5 	39.1291 	0.20006 	-3.97422e-19
-0.140625 	-1 	0.5 	39.1283 	0.192657 	-2.21922e-20
-0.125 	-1 	0.5 	39.1282 	0.186246 	-2.09162e-19
-0.109375 	-1 	0.5 	39.1279 	0.179089 	-1.92934e-19
-0.09375 	-1 	0.5 	39.1277 	0.172008 	-1.58993e-19
-0.078125 	-1 	0.5 	39.1279 	0.165457 	-5.91941e-19
-0.0625 	-1 	0.5 	39.1282 	0.159308 	-8.41769e-19
-0.046875 	-1 	0.5 	39.1286 	0.153201 	-6.16091e-19
-0.03125 	-1 	0.5 	39.1291 	0.147407 	1.45729e-19
-0.015625 	-1 	0.5 	39.1292 	0.141129 	-8.39626e-19
0 	-1 	0.5 	39.1295 	0.135358 	-1.067e-18
0.015625 	-1 	0.5 	39.1312 	0.130238 	-3.02281e-19
0.03125 	-1 	0.5 	39.1331 	0.124889 	4.74521e-19
0.046875 	-1 	0.5 	39.134 	0.12034 	-7.08464e-19
0.0625 	-1 	0.5 	39.1347 	0.115966 	-2.23575e-18
0.078125 	-1 	0.5 	39.1347 	0.110233 	-6.81357e-20
0.09375 	-1 	0.5 	39.1358 	0.105525 	-7.82604e-20
0.109375 	-1 	0.5 	39.1379 	0.101323 	6.64179e-20
0.125 	-1 	0.5 	39.1376 	0.0970419 	-1.96364e-19
0.140625 	-1 	0.5 	39.1398 	0.0924346 	8.24257e-20
0.15625 	-1 	0.5 	39.1404 	0.0881072 	1.1055e-19
0.171875 	-1 	0.5 	39.141 	0.0843898 	4.21473e-19
0.1875 	-1 	0.5 	39.1416 	0.0807521 	2.42673e-19
0.203125 	-1 	0.5 	39.1416 	0.0771891 	5.78235e-19
0.21875 	-1 	0.5 	39.1426 	0.0734688 	-2.22066e-19
0.234375 	-1 	0.5 	39.143 	0.0702072 	-1.16081e-19
0.25 	-1 	0.5 	39.1428 	0.0666585 	-2.64137e-19
0.265625 	-1 	0.5 	39.1425 	0.0632595 	-1.26343e-20
0.28125 	-1 	0.5 	39.1423 	0.0600501 	5.85005e-19
0.296875 	-1 	0.5 	39.1421 	0.0569524 	-2.97807e-19
0.3125 	-1 	0.5 	39.1418 	0.0539755 	-6.22257e-20
0.328125 	-1 	0.5 	39.1415 	0.0505115 	2.38324e-19
0.34375 	-1 	0.5 	39.1409 	0.0472492 	2.30768e-19
0.359375 	-1 	0.5 	39.1399 	0.0438149 	1.09164e-19
0.375 	-1 	0.5 	39.1389 	0.0405207 	3.29787e-20
0.390625 	-1 	0.5 	39.1376 	0.0375173 	-7.05131e-21
0.40625 	-1 	0.5 	39.1364 	0.0345421 	-2.46432e-20
0.421875 	-1 	0.5 	39.1351 	0.0309303 	-1.34547e-19
0.4375 	-1 	0.5 	39.1332 	0.0275374 	-1.37073e-18
0.453125 	-1 	0.5 	39.1317 	0.0237459 	-4.12749e-20
0.46875 	-1 	0.5 	39.1301 	0.020163 	2.08816e-19
0.484375 	-1 	0.5 	39.1277 	0.0163496 	1.57054e-19
0.5 	-1 	0.5 	39.126 	0.0124134 	7.69633e-20
0.515625 	-1 	0.5 	39.1239 	0.0073642 	6.81043e-20
0.53125 	-1 	0.5 	39.1217 	0.00326976 	1.25219e-20
0.546875 	-1 	0.5 	39.1196 	-0.00129031 	-1.18925e-19
0.5625 	-1 	0.5 	39.1169 	-0.00607797 	-2.97032e-19
0.578125 	-1 	0.5 	39.114 	-0.0109925 	-2.0378e-19
0.59375 	-1 	0.5 	39.1111 	-0.0159405 	-4.82892e-21
0.609375 	-1 	0.5 	39.1089 	-0.0220028 	1.77202e-19
0.625 	-1 	0.5 	39.1067 	-0.0279014 	1.75173e-19
0.640625 	-1 	0.5 	39.1048 	-0.0342564 	-5.01545e-19
0.65625 	-1 	0.5 	39.1026 	-0.0407205 	-3.52919e-19
0.671875 	-1 	0.5 	39.1005 	-0.0466962 	8.03516e-20
0.6875 	-1 	0.5 	39.0983 	-0.0530881 	-1.84771e-19
0.703125 	-1 	0.5 	39.0959 	-0.0601168 	2.59512e-20
0.71875 	-1 	0.5 	39.0941 	-0.0674331 	3.27679e-20
0.734375 	-1 	0.5 	39.0927 	-0.0746971 	5.31749e-20
0.75 	-1 	0.5 	39.0906 	-0.0819373 	1.7839e-19
0.765625 	-1 	0.5 	39.0886 	-0.0883119 	1.3546e-19
0.78125 	-1 	0.5 	39.0868 	-0.0950464 	1.79194e-19
0.796875 	-1 	0.5 	39.0862 	-0.10392 	8.00842e-19
0.8125 	-1 	0.5 	39.0856 	-0.113715 	8.21186e-19
0.828125 	-1 	0.5 	39.0857 	-0.121932 	9.40051e-19
0.84375 	-1 	0.5 	39.0858 	-0.13038 	-3.29188e-19
0.859375 	-1 	0.5 	39.0836 	-0.139055 	-2.53015e-19
0.875 	-1 	0.5 	39.0813 	-0.147947 	-1.39743e-19
0.890625 	-1 	0.5 	39.0803 	-0.157174 	-1.32692e-19
0.90625 	-1 	0.5 	39.082 	-0.166734 	-2.84264e-19
0.921875 	-1 	0.5 	39.0835 	-0.175721 	-1.61844e-19
0.9375 	-1 	0.5 	39.0848 	-0.184745 	3.46789e-19
0.953125 	-1 	0.5 	39.0858 	-0.194972 	-1.22861e-19
0.96875 	-1 	0.5 	39.0871 	-0.203982 	-2.0516e-19
0.984375 	-1 	0.5 	39.0902 	-0.213506 	-6.13808e-19
1 	-1 	0.5 	39.0914 	-0.223231 	3.08399e-22
1.01562 	-1 	0.5 	39.0929 	-0.233 	-2.76008e-19
1.03125 	-1 	0.5 	39.0956 	-0.242168 	5.383e-19
1.04688 	-1 	0.5 	39.0971 	-0.251876 	8.49407e-19
1.0625 	-1 	0.5 	39.1024 	-0.262222 	-1.18498e-19
1.07812 	-1 	0.5 	39.1049 	-0.271069 	7.36064e-20
1.09375 	-1 	0.5 	39.1093 	-0.280711 	3.13261e-20
1.10938 	-1 	0.5 	39.1107 	-0.290773 	1.25163e-19
1.125 	-1 	0.5 	39.1157 	-0.299316 	-9.47477e-20
1.14062 	-1 	0.5 	39.1204 	-0.308039 	-3.74647e-19
1.15625 	-1 	0.5 	39.1257 	-0.317441 	1.17484e-19
1.17188 	-1 	0.5 	39.1314 	-0.327419 	2.43948e-19
1.1875 	-1 	0.5 	39.1372 	-0.337398 	3.70412e-19
1.20312 	-1 	0.5 	39.1426 	-0.346746 	-7.13459e-20
1.21875 	-1 	0.5 	39.1475 	-0.355161 	-7.35274e-19
1.23438 	-1 	0.5 	39.1532 	-0.363407 	-4.92721e-19
1.25 	-1 	0.5 	39.1586 	-0.371565 	8.08461e-19
1.26562 	-1 	0.5 	39.1642 	-0.379408 	9.99592e-19
1.28125 	-1 	0.5 	39.1716 	-0.385871 	-4.87746e-19
1.29688 	-1 	0.5 	39.1784 	-0.39263 	-1.14006e-18
1.3125 	-1 	0.5 	39.1854 	-0.402964 	5.48982e-19
1.32812 	-1 	0.5 	39.193 	-0.409328 	1.00149e-18
1.34375 	-1 	0.5 	39.1996 	-0.418444 	-2.76151e-19
1.35938 	-1 	0.5 	39.2072 	-0.424781 	-1.52488e-18
1.375 	-1 	0.5 	39.2132 	-0.432267 	3.05642e-19
1.39062 	-1 	0.5 	39.2211 	-0.437847 	2.36709e-18
1.40625 	-1 	0.5 	39.2305 	-0.445584 	9.13744e-20
1.42188 	-1 	0.5 	39.2376 	-0.450401 	-1.35124e-18
1.4375 	-1 	0.5 	39.2467 	-0.456978 	-2.10582e-19
1.45312 	-1 	0.5 	39.2549 	-0.461556 	-1.63993e-20
1.46875 	-1 	0.5 	39.2652 	-0.467364 	-2.48418e-19
1.48438 	-1 	0.5 	39.2719 	-0.471471 	-1.01946e-19
-0.5 	-0.984375 	0.5 	39.1794 	0.365489 	-3.68625e-19
-0.484375 	-0.984375 	0.5 	39.1764 	0.357586 	-9.17399e-19
-0.46875 	-0.984375 	0.5 	39.172 	0.350262 	-5.73724e-20
-0.453125 	-0.984375 	0.5 	39.1666 	0.341782 	2.44932e-19
-0.4375 	-0.984375 	0.5 	39.1605 	0.335482 	1.05261e-18
-0.421875 	-0.984375 	0.5 	39.1554 	0.329076 	1.15782e-18
-0.40625 	-0.984375 	0.5 	39.1524 	0.322227 	7.92545e-21
-0.390625 	-0.984375 	0.5 	39.1483 	0.314735 	-5.98988e-20
-0.375 	-0.984375 	0.5 	39.1446 	0.306742 	-4.69078e-19
-0.359375 	-0.984375 	0.5 	39.1415 	0.301004 	-1.72407e-18
-0.34375 	-0.984375 	0.5 	39.1383 	0.291707 	-2.49189e-20
-0.328125 	-0.984375 	0.5 	39.1362 	0.28396 	7.60839e-19
-0.3125 	-0.984375 	0.5 	39.1328 	0.276315 	-1.98762e-20
-0.296875 	-0.984375 	0.5 	39.1299 	0.269633 	1.38013e-19
-0.28125 	-0.984375 	0.5 	39.1279 	0.261858 	-5.61038e-19
-0.265625 	-0.984375 	0.5 	39.127 	0.253628 	-5.92717e-19
-0.25 	-0.984375 	0.5 	39.1267 	0.247264 	1.73335e-19
-0.234375 	-0.984375 	0.5 	39.1243 	0.237586 	2.20588e-19
-0.21875 	-0.984375 	0.5 	39.123 	0.22873 	2.82735e-19
-0.203125 	-0.984375 	0.5 	39.1203 	0.222016 	6.89777e-19
-0.1875 	-0.984375 	0.5 	39.1202 	0.214836 	-3.94275e-19
-0.171875 	-0.984375 	0.5 	39.1179 	0.207022 	-1.72675e-18
-0.15625 	-0.984375 	0.5 	39.1189 	0.20013 	-1.07043e-18
-0.140625 	-0.984375 	0.5 	39.1198 	0.193226 	-4.95078e-19
-0.125 	-0.984375 	0.5 	39.1197 	0.18639 	-8.05045e-19
-0.109375 	-0.984375 	0.5 	39.1197 	0.179545 	-1.10144e-18
-0.09375 	-0.984375 	0.5 	39.1192 	0.172018 	9.34e-20
-0.078125 	-0.984375 	0.5 	39.1197 	0.165296 	1.685e-19
-0.0625 	-0.984375 	0.5 	39.12 	0.158713 	-7.51891e-19
-0.046875 	-0.984375 	0.5 	39.1206 	0.152631 	-2.35393e-19
-0.03125 	-0.984375 	0.5 	39.1203 	0.147471 	1.34731e-18
-0.015625 	-0.984375 	0.5 	39.1222 	0.14063 	-2.86339e-19
0 	-0.984375 	0.5 	39.1224 	0.134816 	-5.86881e-19
0.015625 	-0.984375 	0.5 	39.1242 	0.13018 	-2.96224e-19
0.03125 	-0.984375 	0.5 	39.1265 	0.123812 	6.18325e-20
0.046875 	-0.984375 	0.5 	39.1271 	0.119585 	1.9876e-18
0.0625 	-0.984375 	0.5 	39.1283 	0.114735 	-2.6678e-19
0.078125 	-0.984375 	0.5 	39.129 	0.109384 	-5.6548e-20
0.09375 	-0.984375 	0.5 	39.1301 	0.10433 	8.28971e-20
0.109375 	-0.984375 	0.5 	39.1316 	0.100064 	1.49364e-19
0.125 	-0.984375 	0.5 	39.132 	0.0956563 	2.2761e-20
0.140625 	-0.984375 	0.5 	39.1336 	0.0913752 	4.3132e-19
0.15625 	-0.984375 	0.5 	39.1348 	0.0872932 	2.02087e-19
0.171875 	-0.984375 	0.5 	39.1358 	0.0838117 	1.94564e-19
0.1875 	-0.984375 	0.5 	39.1364 	0.0801279 	4.30764e-19
0.203125 	-0.984375 	0.5 	39.1368 	0.0765107 	2.72645e-19
0.21875 	-0.984375 	0.5 	39.1373 	0.0734183 	-7.95786e-19
0.234375 	-0.984375 	0.5 	39.1382 	0.0697122 	-1.22938e-19
0.25 	-0.984375 	0.5 	39.1381 	0.0662231 	-4.36858e-19
0.265625 	-0.984375 	0.5 	39.1381 	0.0632395 	-4.61402e-19
0.28125 	-0.984375 	0.5 	39.1378 	0.0601547 	8.66783e-19
0.296875 	-0.984375 	0.5 	39.1376 	0.0571886 	-5.68269e-19
0.3125 	-0.984375 	0.5 	39.1373 	0.0543192 	-7.61427e-19
0.328125 	-0.984375 	0.5 	39.137 	0.0512423 	-1.27277e-19
0.34375 	-0.984375 	0.5 	39.1362 	0.0481473 	1.71777e-19
0.359375 	-0.984375 	0.5 	39.1351 	0.0450492 	2.85138e-19
0.375 	-0.984375 	0.5 	39.1342 	0.04152 	-2.08387e-19
0.390625 	-0.984375 	0.5 	39.1331 	0.0386067 	-3.60972e-19
0.40625 	-0.984375 	0.5 	39.1315 	0.0356417 	-2.29757e-19
0.421875 	-0.984375 	0.5 	39.13 	0.0325188 	-1.80887e-19
0.4375 	-0.984375 	0.5 	39.1282 	0.0291404 	5.85978e-19
0.453125 	-0.984375 	0.5 	39.1264 	0.0257245 	1.20441e-18
0.46875 	-0.984375 	0.5 	39.1251 	0.0217277 	2.59996e-19
0.484375 	-0.984375 	0.5 	39.1226 	0.0178384 	2.24843e-19
0.5 	-0.984375 	0.5 	39.1202 	0.0143859 	1.5004e-19
0.515625 	-0.984375 	0.5 	39.1179 	0.0101226 	2.10234e-19
0.53125 	-0.984375 	0.5 	39.116 	0.00491714 	5.69507e-19
0.546875 	-0.984375 	0.5 	39.1139 	0.00104445 	-4.1342e-19
0.5625 	-0.984375 	0.5 	39.1113 	-0.00348938 	-2.31434e-19
0.578125 	-0.984375 	0.5 	39.1084 	-0.00840462 	-2.01077e-19
0.59375 	-0.984375 	0.5 	39.1048 	-0.013501 	3.02285e-19
0.609375 	-0.984375 	0.5 	39.1031 	-0.0185964 	1.23015e-20
0.625 	-0.984375 	0.5 	39.1001 	-0.0254336 	2.65894e-19
0.640625 	-0.984375 	0.5 	39.0977 	-0.0300661 	-4.54768e-19
0.65625 	-0.984375 	0.5 	39.0948 	-0.0381274 	-3.7558e-19
0.671875 	-0.984375 	0.5 	39.0922 	-0.0450185 	-4.62131e-19
0.6875 	-0.984375 	0.5 	39.0901 	-0.0508024 	-8.75839e-19
0.703125 	-0.984375 	0.5 	39.0872 	-0.0575383 	-1.17525e-20
0.71875 	-0.984375 	0.5 	39.0861 	-0.0650885 	3.0871e-22
0.734375 	-0.984375 	0.5 	39.0831 	-0.072071 	-3.33642e-21
0.75 	-0.984375 	0.5 	39.0818 	-0.0786619 	1.36511e-20
0.765625 	-0.984375 	0.5 	39.0797 	-0.0854208 	4.53787e-20
0.78125 	-0.984375 	0.5 	39.0776 	-0.0939416 	1.50584e-19
0.796875 	-0.984375 	0.5 	39.0765 	-0.10212 	2.72212e-20
0.8125 	-0.984375 	0.5 	39.0758 	-0.113084 	5.513e-19
0.828125 	-0.984375 	0.5 	39.0747 	-0.121929 	-7.79141e-19
0.84375 	-0.984375 	0.5 	39.0742 	-0.130148 	-8.93283e-19
0.859375 	-0.984375 	0.5 	39.0718 	-0.137839 	-2.84837e-19
0.875 	-0.984375 	0.5 	39.0707 	-0.147333 	1.23111e-21
0.890625 	-0.984375 	0.5 	39.0706 	-0.156882 	1.21443e-19
0.90625 	-0.984375 	0.5 	39.0715 	-0.167304 	-4.24505e-19
0.921875 	-0.984375 	0.5 	39.0731 	-0.17577 	-1.62591e-20
0.9375 	-0.984375 	0.5 	39.0739 	-0.185795 	-2.39948e-20
0.953125 	-0.984375 	0.5 	39.0751 	-0.195431 	7.24818e-20
0.96875 	-0.984375 	0.5 	39.0759 	-0.206027 	-2.21706e-19
0.984375 	-0.984375 	0.5 	39.0773 	-0.216153 	-6.72895e-19
1 	-0.984375 	0.5 	39.0805 	-0.225354 	-3.83029e-21
1.01562 	-0.984375 	0.5 	39.0822 	-0.235338 	1.68211e-19
1.03125 	-0.984375 	0.5 	39.0837 	-0.24549 	2.88942e-19
1.04688 	-0.984375 	0.5 	39.0854 	-0.25508 	8.46672e-19
1.0625 	-0.984375 	0.5 	39.0901 	-0.265274 	1.52121e-20
1.07812 	-0.984375 	0.5 	39.0942 	-0.274564 	2.12829e-21
1.09375 	-0.984375 	0.5 	39.0982 	-0.283843 	-2.06146e-21
1.10938 	-0.984375 	0.5 	39.1013 	-0.293269 	-3.95312e-19
1.125 	-0.984375 	0.5 	39.1044 	-0.302827 	-9.54345e-19
1.14062 	-0.984375 	0.5 	39.1099 	-0.313247 	-3.89076e-19
1.15625 	-0.984375 	0.5 	39.1157 	-0.322981 	-3.84595e-19
1.17188 	-0.984375 	0.5 	39.1211 	-0.331305 	1.18288e-18
1.1875 	-0.984375 	0.5 	39.1269 	-0.343312 	2.64416e-19
1.20312 	-0.984375 	0.5 	39.1307 	-0.354113 	6.94923e-20
1.21875 	-0.984375 	0.5 	39.1386 	-0.361112 	3.92211e-20
1.23438 	-0.984375 	0.5 	39.144 	-0.369308 	-5.2699e-19
1.25 	-0.984375 	0.5 	39.1494 	-0.377492 	5.50734e-19
1.26562 	-0.984375 	0.5 	39.1564 	-0.383825 	-6.63373e-19
1.28125 	-0.984375 	0.5 	39.1632 	-0.389283 	-1.82363e-18
1.29688 	-0.984375 	0.5 	39.1697 	-0.399455 	-1.14307e-18
1.3125 	-0.984375 	0.5 	39.1767 	-0.410011 	5.57836e-19
1.32812 	-0.984375 	0.5 	39.1845 	-0.416067 	1.16043e-18
1.34375 	-0.984375 	0.5 	39.1915 	-0.423954 	8.70904e-19
1.35938 	-0.984375 	0.5 	39.1981 	-0.432884 	7.28916e-20
1.375 	-0.984375 	0.5 	39.2054 	-0.439492 	7.01969e-19
1.39062 	-0.984375 	0.5 	39.214 	-0.446064 	7.68644e-19
1.40625 	-0.984375 	0.5 	39.2226 	-0.452636 	8.3532e-19
1.42188 	-0.984375 	0.5 	39.2314 	-0.459555 	-4.5451e-19
1.4375 	-0.984375 	0.5 	39.2396 	-0.464793 	-1.86969e-19
1.45312 	-0.984375 	0.5 	39.2485 	-0.469784 	-1.34594e-19
1.46875 	-0.984375 	0.5 	39.2579 	-0.475094 	-1.92001e-19
1.48438 	-0.984375 	0.5 	39.2662 	-0.479958 	-2.16564e-19
-0.5 	-0.96875 	0.5 	39.1711 	0.370898 	-1.34345e-19
-0.484375 	-0.96875 	0.5 	39.1673 	0.363594 	-8.9682e-19
-0.46875 	-0.96875 	0.5 	39.1626 	0.356122 	-2.01272e-19
-0.453125 	-0.96875 	0.5 	39.1565 	0.347369 	-6.02158e-19
-0.4375 	-0.96875 	0.5 	39.1515 	0.339472 	5.37745e-19
-0.421875 	-0.96875 	0.5 	39.1463 	0.333099 	7.35089e-19
-0.40625 	-0.96875 	0.5 	39.1427 	0.326119 	6.09562e-20
-0.390625 	-0.96875 	0.5 	39.1386 	0.318673 	-6.54211e-21
-0.375 	-0.96875 	0.5 	39.1348 	0.309989 	-8.27949e-20
-0.359375 	-0.96875 	0.5 	39.1314 	0.302792 	-6.90622e-19
-0.34375 	-0.96875 	0.5 	39.129 	0.294504 	5.34302e-19
-0.328125 	-0.96875 	0.5 	39.1266 	0.286701 	8.83083e-19
-0.3125 	-0.96875 	0.5 	39.1235 	0.278799 	4.72862e-19
-0.296875 	-0.96875 	0.5 	39.1203 	0.271714 	8.88018e-20
-0.28125 	-0.96875 	0.5 	39.1191 	0.264671 	-6.35052e-19
-0.265625 	-0.96875 	0.5 	39.1181 	0.256481 	-6.80033e-19
-0.25 	-0.96875 	0.5 	39.117 	0.247691 	-5.24916e-19
-0.234375 	-0.96875 	0.5 	39.1149 	0.239433 	3.28119e-20
-0.21875 	-0.96875 	0.5 	39.1129 	0.230724 	4.24004e-19
-0.203125 	-0.96875 	0.5 	39.112 	0.2223 	2.07996e-19
-0.1875 	-0.96875 	0.5 	39.1105 	0.215024 	-7.38616e-19
-0.171875 	-0.96875 	0.5 	39.1109 	0.207982 	-4.05119e-19
-0.15625 	-0.96875 	0.5 	39.1102 	0.201155 	-6.82357e-19
-0.140625 	-0.96875 	0.5 	39.1103 	0.193381 	-2.26605e-19
-0.125 	-0.96875 	0.5 	39.1109 	0.186117 	-2.15274e-19
-0.109375 	-0.96875 	0.5 	39.111 	0.179227 	-7.10067e-19
-0.09375 	-0.96875 	0.5 	39.1107 	0.172148 	3.27071e-19
-0.078125 	-0.96875 	0.5 	39.1113 	0.165602 	6.35393e-19
-0.0625 	-0.96875 	0.5 	39.112 	0.15836 	2.03899e-20
-0.046875 	-0.96875 	0.5 	39.1122 	0.152357 	3.8175e-19
-0.03125 	-0.96875 	0.5 	39.1131 	0.146361 	3.47721e-19
-0.015625 	-0.96875 	0.5 	39.114 	0.140251 	9.8548e-20
0 	-0.96875 	0.5 	39.1153 	0.134331 	-2.42858e-19
0.015625 	-0.96875 	0.5 	39.1174 	0.128903 	-6.13813e-20
0.03125 	-0.96875 	0.5 	39.1196 	0.123324 	1.48621e-19
0.046875 	-0.96875 	0.5 	39.1208 	0.118303 	3.86529e-19
0.0625 	-0.96875 	0.5 	39.1208 	0.112729 	-8.68653e-20
0.078125 	-0.96875 	0.5 	39.1221 	0.106918 	2.38164e-19
0.09375 	-0.96875 	0.5 	39.1238 	0.102985 	2.19866e-19
0.109375 	-0.96875 	0.5 	39.1253 	0.0988044 	2.3231e-19
0.125 	-0.96875 	0.5 	39.1264 	0.0947845 	6.26348e-19
0.140625 	-0.96875 	0.5 	39.1275 	0.0907658 	9.48923e-19
0.15625 	-0.96875 	0.5 	39.1288 	0.0863582 	1.55078e-19
0.171875 	-0.96875 	0.5 	39.1299 	0.082838 	3.03539e-19
0.1875 	-0.96875 	0.5 	39.1309 	0.079385 	2.39793e-19
0.203125 	-0.96875 	0.5 	39.1318 	0.0760168 	4.09211e-19
0.21875 	-0.96875 	0.5 	39.1325 	0.0726381 	3.20549e-19
0.234375 	-0.96875 	0.5 	39.1332 	0.0692594 	2.31887e-19
0.25 	-0.96875 	0.5 	39.1335 	0.0661975 	-2.02303e-19
0.265625 	-0.96875 	0.5 	39.1336 	0.0630813 	-7.1542e-19
0.28125 	-0.96875 	0.5 	39.1334 	0.0602306 	3.36114e-19
0.296875 	-0.96875 	0.5 	39.1332 	0.0572758 	-2.44772e-19
0.3125 	-0.96875 	0.5 	39.1329 	0.0545227 	3.82648e-19
0.328125 	-0.96875 	0.5 	39.1326 	0.0519694 	5.5545e-19
0.34375 	-0.96875 	0.5 	39.1314 	0.0499754 	-4.81459e-19
0.359375 	-0.96875 	0.5 	39.1304 	0.0460501 	-3.73671e-19
0.375 	-0.96875 	0.5 	39.1293 	0.0425323 	-3.90516e-19
0.390625 	-0.96875 	0.5 	39.1281 	0.0395473 	-5.21317e-19
0.40625 	-0.96875 	0.5 	39.1268 	0.0367904 	-3.71174e-19
0.421875 	-0.96875 	0.5 	39.1253 	0.0342668 	5.15098e-19
0.4375 	-0.96875 	0.5 	39.1234 	0.0316491 	-5.44521e-19
0.453125 	-0.96875 	0.5 	39.1218 	0.027507 	-7.06044e-20
0.46875 	-0.96875 	0.5 	39.1199 	0.0235011 	2.9933e-19
0.484375 	-0.96875 	0.5 	39.1171 	0.0202646 	7.60009e-20
0.5 	-0.96875 	0.5 	39.1147 	0.0167086 	1.26263e-19
0.515625 	-0.96875 	0.5 	39.1121 	0.0128285 	8.2054e-21
0.53125 	-0.96875 	0.5 	39.11 	0.00801656 	2.55819e-20
0.546875 	-0.96875 	0.5 	39.1078 	0.00346944 	-1.89514e-19
0.5625 	-0.96875 	0.5 	39.1056 	-0.00104688 	-2.87689e-19
0.578125 	-0.96875 	0.5 	39.1026 	-0.00596766 	2.03458e-19
0.59375 	-0.96875 	0.5 	39.0987 	-0.0110523 	5.32246e-19
0.609375 	-0.96875 	0.5 	39.0953 	-0.0158987 	1.47617e-19
0.625 	-0.96875 	0.5 	39.0937 	-0.0222748 	4.89841e-19
0.640625 	-0.96875 	0.5 	39.0905 	-0.0298932 	5.21601e-20
0.65625 	-0.96875 	0.5 	39.0878 	-0.036554 	7.59023e-21
0.671875 	-0.96875 	0.5 	39.085 	-0.0436828 	7.50165e-19
0.6875 	-0.96875 	0.5 	39.0822 	-0.04935 	1.68117e-19
0.703125 	-0.96875 	0.5 	39.0796 	-0.0552541 	-4.3656e-20
0.71875 	-0.96875 	0.5 	39.0773 	-0.0622703 	-4.89978e-20
0.734375 	-0.96875 	0.5 	39.0753 	-0.0688455 	-1.00925e-19
0.75 	-0.96875 	0.5 	39.0727 	-0.0757576 	-3.86802e-19
0.765625 	-0.96875 	0.5 	39.0706 	-0.08384 	-7.00456e-22
0.78125 	-0.96875 	0.5 	39.0689 	-0.0927847 	1.18169e-19
0.796875 	-0.96875 	0.5 	39.0668 	-0.10091 	5.35255e-20
0.8125 	-0.96875 	0.5 	39.0657 	-0.112826 	9.71768e-19
0.828125 	-0.96875 	0.5 	39.0643 	-0.121424 	6.4614e-19
0.84375 	-0.96875 	0.5 	39.063 	-0.129575 	-7.48281e-19
0.859375 	-0.96875 	0.5 	39.0615 	-0.137703 	-1.19294e-19
0.875 	-0.96875 	0.5 	39.0617 	-0.146602 	4.85314e-19
0.890625 	-0.96875 	0.5 	39.0614 	-0.156421 	4.23203e-19
0.90625 	-0.96875 	0.5 	39.0611 	-0.166908 	-1.0349e-19
0.921875 	-0.96875 	0.5 	39.0623 	-0.176424 	-2.606e-20
0.9375 	-0.96875 	0.5 	39.0629 	-0.186424 	-1.97325e-19
0.953125 	-0.96875 	0.5 	39.0636 	-0.196886 	-6.5953e-20
0.96875 	-0.96875 	0.5 	39.0644 	-0.207168 	-2.98587e-19
0.984375 	-0.96875 	0.5 	39.0664 	-0.217368 	-7.33299e-20
1 	-0.96875 	0.5 	39.068 	-0.227304 	3.40302e-19
1.01562 	-0.96875 	0.5 	39.0706 	-0.237305 	1.4923e-19
1.03125 	-0.96875 	0.5 	39.0718 	-0.247429 	3.02933e-19
1.04688 	-0.96875 	0.5 	39.074 	-0.257465 	3.57906e-19
1.0625 	-0.96875 	0.5 	39.0772 	-0.26863 	3.69553e-19
1.07812 	-0.96875 	0.5 	39.0828 	-0.278437 	3.32731e-19
1.09375 	-0.96875 	0.5 	39.0868 	-0.287712 	1.34946e-19
1.10938 	-0.96875 	0.5 	39.0906 	-0.298506 	1.20019e-19
1.125 	-0.96875 	0.5 	39.0941 	-0.308128 	-8.46462e-19
1.14062 	-0.96875 	0.5 	39.1 	-0.317902 	-6.89232e-19
1.15625 	-0.96875 	0.5 	39.106 	-0.327261 	-8.97504e-19
1.17188 	-0.96875 	0.5 	39.111 	-0.338819 	1.3198e-19
1.1875 	-0.96875 	0.5 	39.1157 	-0.349306 	1.99893e-19
1.20312 	-0.96875 	0.5 	39.1218 	-0.358073 	9.30245e-20
1.21875 	-0.96875 	0.5 	39.1283 	-0.366426 	4.13977e-21
1.23438 	-0.96875 	0.5 	39.1348 	-0.374778 	-8.4745e-20
1.25 	-0.96875 	0.5 	39.1411 	-0.383454 	-1.2777e-19
1.26562 	-0.96875 	0.5 	39.1477 	-0.392125 	-4.27006e-20
1.28125 	-0.96875 	0.5 	39.1543 	-0.400795 	4.2369e-20
1.29688 	-0.96875 	0.5 	39.1609 	-0.409465 	1.27439e-19
1.3125 	-0.96875 	0.5 	39.1678 	-0.417717 	1.02415e-19
1.32812 	-0.96875 	0.5 	39.1751 	-0.424787 	-1.21516e-19
1.34375 	-0.96875 	0.5 	39.1825 	-0.431857 	-3.45447e-19
1.35938 	-0.96875 	0.5 	39.1898 	-0.439493 	-2.99986e-19
1.375 	-0.96875 	0.5 	39.198 	-0.448347 	-5.96547e-20
1.39062 	-0.96875 	0.5 	39.2073 	-0.454821 	-8.79452e-19
1.40625 	-0.96875 	0.5 	39.2159 	-0.461353 	-8.63157e-19
1.42188 	-0.96875 	0.5 	39.2241 	-0.467906 	-5.43963e-19
1.4375 	-0.96875 	0.5 	39.2331 	-0.473984 	-7.14466e-19
1.45312 	-0.96875 	0.5 	39.2424 	-0.478622 	-4.9507e-19
1.46875 	-0.96875 	0.5 	39.2516 	-0.483388 	-3.32646e-19
1.48438 	-0.96875 	0.5 	39.2606 	-0.488462 	-3.32614e-19
-0.5 	-0.953125 	0.5 	39.1634 	0.376226 	-1.11128e-19
-0.484375 	-0.953125 	0.5 	39.1579 	0.369768 	-4.72779e-19
-0.46875 	-0.953125 	0.5 	39.1529 	0.361713 	-6.82585e-19
-0.453125 	-0.953125 	0.5 	39.147 	0.352965 	-8.0138e-19
-0.4375 	-0.953125 	0.5 	39.142 	0.344226 	-1.35942e-19
-0.421875 	-0.953125 	0.5 	39.1372 	0.337121 	3.12354e-19
-0.40625 	-0.953125 	0.5 	39.1332 	0.329618 	1.11214e-19
-0.390625 	-0.953125 	0.5 	39.1293 	0.321398 	3.82377e-20
-0.375 	-0.953125 	0.5 	39.1254 	0.31328 	-1.13967e-20
-0.359375 	-0.953125 	0.5 	39.1214 	0.305373 	-9.65301e-20
-0.34375 	-0.953125 	0.5 	39.1185 	0.296796 	-6.84203e-20
-0.328125 	-0.953125 	0.5 	39.1158 	0.289008 	-4.05804e-20
-0.3125 	-0.953125 	0.5 	39.1131 	0.281221 	-1.27404e-20
-0.296875 	-0.953125 	0.5 	39.1104 	0.273707 	1.50322e-20
-0.28125 	-0.953125 	0.5 	39.1082 	0.265336 	-5.13224e-19
-0.265625 	-0.953125 	0.5 	39.1065 	0.257232 	-9.44543e-19
-0.25 	-0.953125 	0.5 	39.106 	0.249142 	-6.8125e-19
-0.234375 	-0.953125 	0.5 	39.1029 	0.239186 	-1.09777e-18
-0.21875 	-0.953125 	0.5 	39.1028 	0.231221 	-6.64239e-19
-0.203125 	-0.953125 	0.5 	39.1027 	0.223256 	-2.3071e-19
-0.1875 	-0.953125 	0.5 	39.1021 	0.215695 	-2.12444e-19
-0.171875 	-0.953125 	0.5 	39.1013 	0.208462 	-3.95557e-19
-0.15625 	-0.953125 	0.5 	39.1005 	0.201229 	-5.7867e-19
-0.140625 	-0.953125 	0.5 	39.1007 	0.193485 	-7.66195e-21
-0.125 	-0.953125 	0.5 	39.1014 	0.186476 	8.89129e-20
-0.109375 	-0.953125 	0.5 	39.1019 	0.17898 	2.31777e-20
-0.09375 	-0.953125 	0.5 	39.1024 	0.171756 	-1.2791e-19
-0.078125 	-0.953125 	0.5 	39.1029 	0.164664 	-5.35278e-19
-0.0625 	-0.953125 	0.5 	39.1035 	0.157624 	-7.4214e-19
-0.046875 	-0.953125 	0.5 	39.1048 	0.150971 	-1.44146e-19
-0.03125 	-0.953125 	0.5 	39.1055 	0.144946 	-1.58619e-18
-0.015625 	-0.953125 	0.5 	39.1064 	0.138807 	-1.16076e-18
0 	-0.953125 	0.5 	39.1083 	0.132783 	6.39215e-19
0.015625 	-0.953125 	0.5 	39.1096 	0.127 	-9.358e-19
0.03125 	-0.953125 	0.5 	39.1122 	0.121551 	-3.07476e-20
0.046875 	-0.953125 	0.5 	39.1137 	0.116257 	2.61608e-19
0.0625 	-0.953125 	0.5 	39.1139 	0.110562 	-8.98921e-20
0.078125 	-0.953125 	0.5 	39.1154 	0.105249 	1.44887e-19
0.09375 	-0.953125 	0.5 	39.1173 	0.101547 	7.02833e-20
0.109375 	-0.953125 	0.5 	39.1196 	0.097487 	1.81941e-19
0.125 	-0.953125 	0.5 	39.1207 	0.0931204 	5.30313e-19
0.140625 	-0.953125 	0.5 	39.1218 	0.0892701 	3.93919e-19
0.15625 	-0.953125 	0.5 	39.1228 	0.0855078 	2.16047e-19
0.171875 	-0.953125 	0.5 	39.1243 	0.081855 	1.0205e-19
0.1875 	-0.953125 	0.5 	39.1259 	0.0782621 	5.03926e-20
0.203125 	-0.953125 	0.5 	39.1271 	0.075023 	-3.76439e-19
0.21875 	-0.953125 	0.5 	39.1278 	0.0722153 	4.41254e-19
0.234375 	-0.953125 	0.5 	39.1285 	0.0688371 	3.61966e-19
0.25 	-0.953125 	0.5 	39.1282 	0.0650953 	-6.68559e-21
0.265625 	-0.953125 	0.5 	39.1286 	0.0626138 	3.23358e-20
0.28125 	-0.953125 	0.5 	39.1289 	0.0601578 	5.29906e-20
0.296875 	-0.953125 	0.5 	39.1287 	0.0578017 	7.47609e-20
0.3125 	-0.953125 	0.5 	39.1285 	0.0553383 	5.71471e-19
0.328125 	-0.953125 	0.5 	39.1281 	0.0527454 	6.01811e-19
0.34375 	-0.953125 	0.5 	39.1271 	0.050641 	-5.18233e-19
0.359375 	-0.953125 	0.5 	39.1262 	0.0469977 	-1.75922e-19
0.375 	-0.953125 	0.5 	39.1249 	0.0444527 	-9.06114e-20
0.390625 	-0.953125 	0.5 	39.1236 	0.0412176 	-3.35176e-19
0.40625 	-0.953125 	0.5 	39.1222 	0.0386789 	4.98843e-19
0.421875 	-0.953125 	0.5 	39.1207 	0.0360089 	1.46388e-18
0.4375 	-0.953125 	0.5 	39.1185 	0.0330964 	1.67781e-20
0.453125 	-0.953125 	0.5 	39.1169 	0.0293408 	2.05985e-19
0.46875 	-0.953125 	0.5 	39.1148 	0.0259902 	8.85979e-19
0.484375 	-0.953125 	0.5 	39.1119 	0.0224453 	3.30633e-19
0.5 	-0.953125 	0.5 	39.1091 	0.0189868 	1.07369e-19
0.515625 	-0.953125 	0.5 	39.1066 	0.0149778 	5.1159e-20
0.53125 	-0.953125 	0.5 	39.104 	0.0108889 	4.28053e-20
0.546875 	-0.953125 	0.5 	39.1008 	0.00525164 	7.72099e-21
0.5625 	-0.953125 	0.5 	39.0991 	0.00166925 	4.44048e-20
0.578125 	-0.953125 	0.5 	39.0954 	-0.00423387 	9.8111e-21
0.59375 	-0.953125 	0.5 	39.0914 	-0.00896417 	1.24587e-19
0.609375 	-0.953125 	0.5 	39.088 	-0.013022 	3.29108e-19
0.625 	-0.953125 	0.5 	39.0856 	-0.0196818 	-2.21168e-19
0.640625 	-0.953125 	0.5 	39.0834 	-0.0269726 	-1.19146e-19
0.65625 	-0.953125 	0.5 	39.0804 	-0.0339877 	1.5769e-19
0.671875 	-0.953125 	0.5 	39.0768 	-0.0403955 	3.73989e-19
0.6875 	-0.953125 	0.5 	39.0734 	-0.0466455 	4.67267e-19
0.703125 	-0.953125 	0.5 	39.0712 	-0.0524611 	-3.48543e-20
0.71875 	-0.953125 	0.5 	39.0682 	-0.0600532 	-1.10835e-19
0.734375 	-0.953125 	0.5 	39.0651 	-0.068295 	-5.0321e-19
0.75 	-0.953125 	0.5 	39.063 	-0.0764206 	-2.23917e-19
0.765625 	-0.953125 	0.5 	39.0619 	-0.0863403 	1.27522e-20
0.78125 	-0.953125 	0.5 	39.059 	-0.0926767 	2.30277e-19
0.796875 	-0.953125 	0.5 	39.0569 	-0.101294 	5.00408e-19
0.8125 	-0.953125 	0.5 	39.0555 	-0.110633 	5.11825e-19
0.828125 	-0.953125 	0.5 	39.0541 	-0.119083 	1.18838e-19
0.84375 	-0.953125 	0.5 	39.0522 	-0.128418 	2.47724e-19
0.859375 	-0.953125 	0.5 	39.0513 	-0.137468 	-1.52543e-19
0.875 	-0.953125 	0.5 	39.0506 	-0.14701 	-4.87606e-19
0.890625 	-0.953125 	0.5 	39.0501 	-0.156616 	-5.77962e-19
0.90625 	-0.953125 	0.5 	39.0506 	-0.166428 	1.90168e-19
0.921875 	-0.953125 	0.5 	39.0508 	-0.177634 	-1.22645e-20
0.9375 	-0.953125 	0.5 	39.0511 	-0.187519 	-5.63464e-19
0.953125 	-0.953125 	0.5 	39.0509 	-0.197685 	-3.46939e-20
0.96875 	-0.953125 	0.5 	39.0527 	-0.208723 	-2.12516e-19
0.984375 	-0.953125 	0.5 	39.0545 	-0.219012 	1.19257e-19
1 	-0.953125 	0.5 	39.057 	-0.229309 	1.94867e-21
1.01562 	-0.953125 	0.5 	39.0593 	-0.239319 	8.92247e-20
1.03125 	-0.953125 	0.5 	39.0619 	-0.248984 	2.68381e-19
1.04688 	-0.953125 	0.5 	39.0633 	-0.260203 	1.87445e-19
1.0625 	-0.953125 	0.5 	39.0687 	-0.271838 	2.97631e-20
1.07812 	-0.953125 	0.5 	39.071 	-0.28218 	3.58136e-19
1.09375 	-0.953125 	0.5 	39.0752 	-0.291909 	4.60311e-19
1.10938 	-0.953125 	0.5 	39.0783 	-0.302761 	7.59119e-19
1.125 	-0.953125 	0.5 	39.0837 	-0.313432 	-2.67892e-20
1.14062 	-0.953125 	0.5 	39.0894 	-0.32374 	-2.58896e-19
1.15625 	-0.953125 	0.5 	39.0947 	-0.333945 	2.90513e-19
1.17188 	-0.953125 	0.5 	39.1 	-0.344084 	5.07405e-19
1.1875 	-0.953125 	0.5 	39.1058 	-0.353559 	2.30419e-19
1.20312 	-0.953125 	0.5 	39.1099 	-0.36214 	7.82451e-20
1.21875 	-0.953125 	0.5 	39.116 	-0.371015 	-2.01523e-20
1.23438 	-0.953125 	0.5 	39.1242 	-0.379341 	-6.22236e-20
1.25 	-0.953125 	0.5 	39.1316 	-0.390353 	-7.53505e-20
1.26562 	-0.953125 	0.5 	39.1387 	-0.39905 	-6.98432e-20
1.28125 	-0.953125 	0.5 	39.1458 	-0.405238 	-1.09817e-20
1.29688 	-0.953125 	0.5 	39.1521 	-0.415584 	9.17836e-20
1.3125 	-0.953125 	0.5 	39.1582 	-0.42434 	1.11003e-18
1.32812 	-0.953125 	0.5 	39.167 	-0.432122 	-9.12553e-20
1.34375 	-0.953125 	0.5 	39.1747 	-0.43766 	-1.04342e-18
1.35938 	-0.953125 	0.5 	39.1815 	-0.447353 	-2.05127e-20
1.375 	-0.953125 	0.5 	39.1907 	-0.45703 	9.12416e-19
1.39062 	-0.953125 	0.5 	39.1992 	-0.463941 	-4.89078e-19
1.40625 	-0.953125 	0.5 	39.2087 	-0.470407 	-1.4267e-18
1.42188 	-0.953125 	0.5 	39.216 	-0.477017 	-3.02052e-20
1.4375 	-0.953125 	0.5 	39.2265 	-0.482114 	1.1586e-19
1.45312 	-0.953125 	0.5 	39.235 	-0.489369 	-1.65681e-18
1.46875 	-0.953125 	0.5 	39.2443 	-0.494024 	-1.44736e-18
1.48438 	-0.953125 	0.5 	39.2534 	-0.497584 	-2.45024e-19
-0.5 	-0.9375 	0.5 	39.1521 	0.381943 	5.10035e-19
-0.484375 	-0.9375 	0.5 	39.1483 	0.375037 	-9.54159e-20
-0.46875 	-0.9375 	0.5 	39.1435 	0.366973 	-1.83505e-19
-0.453125 	-0.9375 	0.5 	39.138 	0.358233 	2.96097e-20
-0.4375 	-0.9375 	0.5 	39.1325 	0.349493 	2.42725e-19
-0.421875 	-0.9375 	0.5 	39.1277 	0.340975 	2.18997e-19
-0.40625 	-0.9375 	0.5 	39.1242 	0.333599 	4.36617e-19
-0.390625 	-0.9375 	0.5 	39.1204 	0.326036 	5.19106e-19
-0.375 	-0.9375 	0.5 	39.1159 	0.317701 	2.93269e-19
-0.359375 	-0.9375 	0.5 	39.1117 	0.309382 	-1.60322e-20
-0.34375 	-0.9375 	0.5 	39.1076 	0.301505 	-1.87541e-20
-0.328125 	-0.9375 	0.5 	39.1048 	0.292066 	9.56745e-21
-0.3125 	-0.9375 	0.5 	39.102 	0.284898 	3.7255e-20
-0.296875 	-0.9375 	0.5 	39.1 	0.276656 	6.67048e-21
-0.28125 	-0.9375 	0.5 	39.0979 	0.267011 	6.05426e-19
-0.265625 	-0.9375 	0.5 	39.0963 	0.258233 	-2.21546e-19
-0.25 	-0.9375 	0.5 	39.0946 	0.25013 	-5.92405e-19
-0.234375 	-0.9375 	0.5 	39.0916 	0.240175 	-9.53698e-19
-0.21875 	-0.9375 	0.5 	39.093 	0.233053 	2.08479e-20
-0.203125 	-0.9375 	0.5 	39.0923 	0.224318 	4.42169e-19
-0.1875 	-0.9375 	0.5 	39.0926 	0.215837 	-2.33036e-21
-0.171875 	-0.9375 	0.5 	39.0922 	0.208895 	-1.10965e-20
-0.15625 	-0.9375 	0.5 	39.0915 	0.201119 	1.46001e-20
-0.140625 	-0.9375 	0.5 	39.0911 	0.192911 	6.11017e-20
-0.125 	-0.9375 	0.5 	39.0911 	0.185396 	3.33498e-21
-0.109375 	-0.9375 	0.5 	39.0922 	0.178083 	1.14434e-19
-0.09375 	-0.9375 	0.5 	39.0934 	0.170668 	5.8136e-19
-0.078125 	-0.9375 	0.5 	39.0942 	0.163493 	-9.08163e-19
-0.0625 	-0.9375 	0.5 	39.0949 	0.156778 	1.51757e-19
-0.046875 	-0.9375 	0.5 	39.0966 	0.14905 	1.4733e-18
-0.03125 	-0.9375 	0.5 	39.0979 	0.143379 	-4.7645e-19
-0.015625 	-0.9375 	0.5 	39.0988 	0.137259 	-3.60942e-19