-0.5 	-1 	0.5 	231.591
-0.484375 	-1 	0.5 	231.726
-0.46875 	-1 	0.5 	231.843
-0.453125 	-1 	0.5 	231.971
-0.4375 	-1 	0.5 	232.067
-0.421875 	-1 	0.5 	232.196
-0.40625 	-1 	0.5 	232.333
-0.390625 	-1 	0.5 	232.433
-0.375 	-1 	0.5 	232.528
-0.359375 	-1 	0.5 	232.65
-0.34375 	-1 	0.5 	232.803
-0.328125 	-1 	0.5 	232.908
-0.3125 	-1 	0.5 	233.039
-0.296875 	-1 	0.5 	233.135
-0.28125 	-1 	0.5 	233.195
-0.265625 	-1 	0.5 	233.296
-0.25 	-1 	0.5 	233.377
-0.234375 	-1 	0.5 	233.475
-0.21875 	-1 	0.5 	233.536
-0.203125 	-1 	0.5 	233.635
-0.1875 	-1 	0.5 	233.729
-0.171875 	-1 	0.5 	233.82
-0.15625 	-1 	0.5 	233.916
-0.140625 	-1 	0.5 	233.98
-0.125 	-1 	0.5 	234.074
-0.109375 	-1 	0.5 	234.147
-0.09375 	-1 	0.5 	234.222
-0.078125 	-1 	0.5 	234.295
-0.0625 	-1 	0.5 	234.367
-0.046875 	-1 	0.5 	234.444
-0.03125 	-1 	0.5 	234.523
-0.015625 	-1 	0.5 	234.584
0 	-1 	0.5 	234.635
0.015625 	-1 	0.5 	234.682
0.03125 	-1 	0.5 	234.744
0.046875 	-1 	0.5 	234.832
0.0625 	-1 	0.5 	234.907
0.078125 	-1 	0.5 	234.962
0.09375 	-1 	0.5 	235.014
0.109375 	-1 	0.5 	235.046
0.125 	-1 	0.5 	235.116
0.140625 	-1 	0.5 	235.168
0.15625 	-1 	0.5 	235.227
0.171875 	-1 	0.5 	235.289
0.1875 	-1 	0.5 	235.346
0.203125 	-1 	0.5 	235.406
0.21875 	-1 	0.5 	235.456
0.234375 	-1 	0.5 	235.51
0.25 	-1 	0.5 	235.565
0.265625 	-1 	0.5 	235.616
0.28125 	-1 	0.5 	235.666
0.296875 	-1 	0.5 	235.685
0.3125 	-1 	0.5 	235.773
0.328125 	-1 	0.5 	235.836
0.34375 	-1 	0.5 	235.86
0.359375 	-1 	0.5 	235.903
0.375 	-1 	0.5 	235.968
0.390625 	-1 	0.5 	236.001
0.40625 	-1 	0.5 	236.048
0.421875 	-1 	0.5 	236.088
0.4375 	-1 	0.5 	236.145
0.453125 	-1 	0.5 	236.178
0.46875 	-1 	0.5 	236.212
0.484375 	-1 	0.5 	236.229
0.5 	-1 	0.5 	236.26
0.515625 	-1 	0.5 	236.316
0.53125 	-1 	0.5 	236.336
0.546875 	-1 	0.5 	236.354
0.5625 	-1 	0.5 	236.382
0.578125 	-1 	0.5 	236.398
0.59375 	-1 	0.5 	236.428
0.609375 	-1 	0.5 	236.448
0.625 	-1 	0.5 	236.432
0.640625 	-1 	0.5 	236.408
0.65625 	-1 	0.5 	236.414
0.671875 	-1 	0.5 	236.428
0.6875 	-1 	0.5 	236.442
0.703125 	-1 	0.5 	236.426
0.71875 	-1 	0.5 	236.378
0.734375 	-1 	0.5 	236.321
0.75 	-1 	0.5 	236.332
0.765625 	-1 	0.5 	236.315
0.78125 	-1 	0.5 	236.283
0.796875 	-1 	0.5 	236.225
0.8125 	-1 	0.5 	236.169
0.828125 	-1 	0.5 	236.12
0.84375 	-1 	0.5 	236.092
0.859375 	-1 	0.5 	236.102
0.875 	-1 	0.5 	235.994
0.890625 	-1 	0.5 	235.895
0.90625 	-1 	0.5 	235.821
0.921875 	-1 	0.5 	235.741
0.9375 	-1 	0.5 	235.661
0.953125 	-1 	0.5 	235.553
0.96875 	-1 	0.5 	235.467
0.984375 	-1 	0.5 	235.384
1 	-1 	0.5 	235.26
1.01562 	-1 	0.5 	235.17
1.03125 	-1 	0.5 	235.06
1.04688 	-1 	0.5 	234.913
1.0625 	-1 	0.5 	234.769
1.07812 	-1 	0.5 	234.653
1.09375 	-1 	0.5 	234.559
1.10938 	-1 	0.5 	234.462
1.125 	-1 	0.5 	234.373
1.14062 	-1 	0.5 	234.287
1.15625 	-1 	0.5 	234.172
1.17188 	-1 	0.5 	233.98
1.1875 	-1 	0.5 	233.824
1.20312 	-1 	0.5 	233.647
1.21875 	-1 	0.5 	233.546
1.23438 	-1 	0.5 	233.406
1.25 	-1 	0.5 	233.236
1.26562 	-1 	0.5 	233.072
1.28125 	-1 	0.5 	232.884
1.29688 	-1 	0.5 	232.718
1.3125 	-1 	0.5 	232.587
1.32812 	-1 	0.5 	232.434
1.34375 	-1 	0.5 	232.297
1.35938 	-1 	0.5 	232.141
1.375 	-1 	0.5 	231.962
1.39062 	-1 	0.5 	231.773
1.40625 	-1 	0.5 	231.622
1.42188 	-1 	0.5 	231.487
1.4375 	-1 	0.5 	231.33
1.45312 	-1 	0.5 	231.154
1.46875 	-1 	0.5 	231.047
1.48438 	-1 	0.5 	230.864
-0.5 	-0.984375 	0.5 	231.686
-0.484375 	-0.984375 	0.5 	231.818
-0.46875 	-0.984375 	0.5 	231.947
-0.453125 	-0.984375 	0.5 	232.058
-0.4375 	-0.984375 	0.5 	232.225
-0.421875 	-0.984375 	0.5 	232.35
-0.40625 	-0.984375 	0.5 	232.454
-0.390625 	-0.984375 	0.5 	232.55
-0.375 	-0.984375 	0.5 	232.666
-0.359375 	-0.984375 	0.5 	232.784
-0.34375 	-0.984375 	0.5 	232.894
-0.328125 	-0.984375 	0.5 	233.02
-0.3125 	-0.984375 	0.5 	233.118
-0.296875 	-0.984375 	0.5 	233.217
-0.28125 	-0.984375 	0.5 	233.318
-0.265625 	-0.984375 	0.5 	233.413
-0.25 	-0.984375 	0.5 	233.505
-0.234375 	-0.984375 	0.5 	233.596
-0.21875 	-0.984375 	0.5 	233.693
-0.203125 	-0.984375 	0.5 	233.797
-0.1875 	-0.984375 	0.5 	233.867
-0.171875 	-0.984375 	0.5 	233.947
-0.15625 	-0.984375 	0.5 	234.017
-0.140625 	-0.984375 	0.5 	234.101
-0.125 	-0.984375 	0.5 	234.183
-0.109375 	-0.984375 	0.5 	234.286
-0.09375 	-0.984375 	0.5 	234.354
-0.078125 	-0.984375 	0.5 	234.422
-0.0625 	-0.984375 	0.5 	234.495
-0.046875 	-0.984375 	0.5 	234.573
-0.03125 	-0.984375 	0.5 	234.652
-0.015625 	-0.984375 	0.5 	234.719
0 	-0.984375 	0.5 	234.763
0.015625 	-0.984375 	0.5 	234.824
0.03125 	-0.984375 	0.5 	234.873
0.046875 	-0.984375 	0.5 	234.95
0.0625 	-0.984375 	0.5 	235.034
0.078125 	-0.984375 	0.5 	235.088
0.09375 	-0.984375 	0.5 	235.138
0.109375 	-0.984375 	0.5 	235.196
0.125 	-0.984375 	0.5 	235.254
0.140625 	-0.984375 	0.5 	235.305
0.15625 	-0.984375 	0.5 	235.354
0.171875 	-0.984375 	0.5 	235.424
0.1875 	-0.984375 	0.5 	235.487
0.203125 	-0.984375 	0.5 	235.548
0.21875 	-0.984375 	0.5 	235.594
0.234375 	-0.984375 	0.5 	235.641
0.25 	-0.984375 	0.5 	235.703
0.265625 	-0.984375 	0.5 	235.762
0.28125 	-0.984375 	0.5 	235.812
0.296875 	-0.984375 	0.5 	235.858
0.3125 	-0.984375 	0.5 	235.924
0.328125 	-0.984375 	0.5 	235.979
0.34375 	-0.984375 	0.5 	236.028
0.359375 	-0.984375 	0.5 	236.058
0.375 	-0.984375 	0.5 	236.11
0.390625 	-0.984375 	0.5 	236.166
0.40625 	-0.984375 	0.5 	236.21
0.421875 	-0.984375 	0.5 	236.25
0.4375 	-0.984375 	0.5 	236.299
0.453125 	-0.984375 	0.5 	236.338
0.46875 	-0.984375 	0.5 	236.376
0.484375 	-0.984375 	0.5 	236.393
0.5 	-0.984375 	0.5 	236.424
0.515625 	-0.984375 	0.5 	236.484
0.53125 	-0.984375 	0.5 	236.516
0.546875 	-0.984375 	0.5 	236.554
0.5625 	-0.984375 	0.5 	236.583
0.578125 	-0.984375 	0.5 	236.599
0.59375 	-0.984375 	0.5 	236.615
0.609375 	-0.984375 	0.5 	236.629
0.625 	-0.984375 	0.5 	236.632
0.640625 	-0.984375 	0.5 	236.617
0.65625 	-0.984375 	0.5 	236.586
0.671875 	-0.984375 	0.5 	236.608
0.6875 	-0.984375 	0.5 	236.617
0.703125 	-0.984375 	0.5 	236.61
0.71875 	-0.984375 	0.5 	236.619
0.734375 	-0.984375 	0.5 	236.613
0.75 	-0.984375 	0.5 	236.555
0.765625 	-0.984375 	0.5 	236.503
0.78125 	-0.984375 	0.5 	236.454
0.796875 	-0.984375 	0.5 	236.413
0.8125 	-0.984375 	0.5 	236.374
0.828125 	-0.984375 	0.5 	236.327
0.84375 	-0.984375 	0.5 	236.283
0.859375 	-0.984375 	0.5 	236.244
0.875 	-0.984375 	0.5 	236.201
0.890625 	-0.984375 	0.5 	236.069
0.90625 	-0.984375 	0.5 	236.002
0.921875 	-0.984375 	0.5 	235.929
0.9375 	-0.984375 	0.5 	235.819
0.953125 	-0.984375 	0.5 	235.749
0.96875 	-0.984375 	0.5 	235.637
0.984375 	-0.984375 	0.5 	235.558
1 	-0.984375 	0.5 	235.461
1.01562 	-0.984375 	0.5 	235.35
1.03125 	-0.984375 	0.5 	235.243
1.04688 	-0.984375 	0.5 	235.15
1.0625 	-0.984375 	0.5 	234.962
1.07812 	-0.984375 	0.5 	234.829
1.09375 	-0.984375 	0.5 	234.733
1.10938 	-0.984375 	0.5 	234.624
1.125 	-0.984375 	0.5 	234.514
1.14062 	-0.984375 	0.5 	234.424
1.15625 	-0.984375 	0.5 	234.303
1.17188 	-0.984375 	0.5 	234.13
1.1875 	-0.984375 	0.5 	233.972
1.20312 	-0.984375 	0.5 	233.842
1.21875 	-0.984375 	0.5 	233.71
1.23438 	-0.984375 	0.5 	233.505
1.25 	-0.984375 	0.5 	233.347
1.26562 	-0.984375 	0.5 	233.179
1.28125 	-0.984375 	0.5 	233.042
1.29688 	-0.984375 	0.5 	232.833
1.3125 	-0.984375 	0.5 	232.713
1.32812 	-0.984375 	0.5 	232.536
1.34375 	-0.984375 	0.5 	232.388
1.35938 	-0.984375 	0.5 	232.238
1.375 	-0.984375 	0.5 	232.057
1.39062 	-0.984375 	0.5 	231.863
1.40625 	-0.984375 	0.5 	231.688
1.42188 	-0.984375 	0.5 	231.525
1.4375 	-0.984375 	0.5 	231.381
1.45312 	-0.984375 	0.5 	231.215
1.46875 	-0.984375 	0.5 	231.056
1.48438 	-0.984375 	0.5 	230.9
-0.5 	-0.96875 	0.5 	231.781
-0.484375 	-0.96875 	0.5 	231.913
-0.46875 	-0.96875 	0.5 	232.033
-0.453125 	-0.96875 	0.5 	232.155
-0.4375 	-0.96875 	0.5 	232.312
-0.421875 	-0.96875 	0.5 	232.431
-0.40625 	-0.96875 	0.5 	232.582
-0.390625 	-0.96875 	0.5 	232.668
-0.375 	-0.96875 	0.5 	232.77
-0.359375 	-0.96875 	0.5 	232.893
-0.34375 	-0.96875 	0.5 	233.015
-0.328125 	-0.96875 	0.5 	233.124
-0.3125 	-0.96875 	0.5 	233.212
-0.296875 	-0.96875 	0.5 	233.321
-0.28125 	-0.96875 	0.5 	233.439
-0.265625 	-0.96875 	0.5 	233.532
-0.25 	-0.96875 	0.5 	233.603
-0.234375 	-0.96875 	0.5 	233.714
-0.21875 	-0.96875 	0.5 	233.832
-0.203125 	-0.96875 	0.5 	233.921
-0.1875 	-0.96875 	0.5 	234.004
-0.171875 	-0.96875 	0.5 	234.08
-0.15625 	-0.96875 	0.5 	234.157
-0.140625 	-0.96875 	0.5 	234.234
-0.125 	-0.96875 	0.5 	234.323
-0.109375 	-0.96875 	0.5 	234.421
-0.09375 	-0.96875 	0.5 	234.487
-0.078125 	-0.96875 	0.5 	234.556
-0.0625 	-0.96875 	0.5 	234.623
-0.046875 	-0.96875 	0.5 	234.698
-0.03125 	-0.96875 	0.5 	234.775
-0.015625 	-0.96875 	0.5 	234.847
0 	-0.96875 	0.5 	234.904
0.015625 	-0.96875 	0.5 	234.972
0.03125 	-0.96875 	0.5 	235.041
0.046875 	-0.96875 	0.5 	235.104
0.0625 	-0.96875 	0.5 	235.172
0.078125 	-0.96875 	0.5 	235.213
0.09375 	-0.96875 	0.5 	235.254
0.109375 	-0.96875 	0.5 	235.342
0.125 	-0.96875 	0.5 	235.398
0.140625 	-0.96875 	0.5 	235.441
0.15625 	-0.96875 	0.5 	235.498
0.171875 	-0.96875 	0.5 	235.554
0.1875 	-0.96875 	0.5 	235.639
0.203125 	-0.96875 	0.5 	235.68
0.21875 	-0.96875 	0.5 	235.724
0.234375 	-0.96875 	0.5 	235.779
0.25 	-0.96875 	0.5 	235.837
0.265625 	-0.96875 	0.5 	235.89
0.28125 	-0.96875 	0.5 	235.942
0.296875 	-0.96875 	0.5 	236.002
0.3125 	-0.96875 	0.5 	236.064
0.328125 	-0.96875 	0.5 	236.121
0.34375 	-0.96875 	0.5 	236.162
0.359375 	-0.96875 	0.5 	236.219
0.375 	-0.96875 	0.5 	236.261
0.390625 	-0.96875 	0.5 	236.325
0.40625 	-0.96875 	0.5 	236.372
0.421875 	-0.96875 	0.5 	236.417
0.4375 	-0.96875 	0.5 	236.465
0.453125 	-0.96875 	0.5 	236.497
0.46875 	-0.96875 	0.5 	236.546
0.484375 	-0.96875 	0.5 	236.565
0.5 	-0.96875 	0.5 	236.63
0.515625 	-0.96875 	0.5 	236.677
0.53125 	-0.96875 	0.5 	236.715
0.546875 	-0.96875 	0.5 	236.746
0.5625 	-0.96875 	0.5 	236.737
0.578125 	-0.96875 	0.5 	236.779
0.59375 	-0.96875 	0.5 	236.798
0.609375 	-0.96875 	0.5 	236.869
0.625 	-0.96875 	0.5 	236.829
0.640625 	-0.96875 	0.5 	236.814
0.65625 	-0.96875 	0.5 	236.797
0.671875 	-0.96875 	0.5 	236.798
0.6875 	-0.96875 	0.5 	236.804
0.703125 	-0.96875 	0.5 	236.823
0.71875 	-0.96875 	0.5 	236.828
0.734375 	-0.96875 	0.5 	236.793
0.75 	-0.96875 	0.5 	236.78
0.765625 	-0.96875 	0.5 	236.712
0.78125 	-0.96875 	0.5 	236.668
0.796875 	-0.96875 	0.5 	236.622
0.8125 	-0.96875 	0.5 	236.579
0.828125 	-0.96875 	0.5 	236.532
0.84375 	-0.96875 	0.5 	236.485
0.859375 	-0.96875 	0.5 	236.422
0.875 	-0.96875 	0.5 	236.365
0.890625 	-0.96875 	0.5 	236.247
0.90625 	-0.96875 	0.5 	236.189
0.921875 	-0.96875 	0.5 	236.142
0.9375 	-0.96875 	0.5 	236.047
0.953125 	-0.96875 	0.5 	235.947
0.96875 	-0.96875 	0.5 	235.82
0.984375 	-0.96875 	0.5 	235.749
1 	-0.96875 	0.5 	235.642
1.01562 	-0.96875 	0.5 	235.532
1.03125 	-0.96875 	0.5 	235.427
1.04688 	-0.96875 	0.5 	235.279
1.0625 	-0.96875 	0.5 	235.147
1.07812 	-0.96875 	0.5 	235.019
1.09375 	-0.96875 	0.5 	234.886
1.10938 	-0.96875 	0.5 	234.768
1.125 	-0.96875 	0.5 	234.654
1.14062 	-0.96875 	0.5 	234.549
1.15625 	-0.96875 	0.5 	234.392
1.17188 	-0.96875 	0.5 	234.251
1.1875 	-0.96875 	0.5 	234.152
1.20312 	-0.96875 	0.5 	233.997
1.21875 	-0.96875 	0.5 	233.862
1.23438 	-0.96875 	0.5 	233.627
1.25 	-0.96875 	0.5 	233.473
1.26562 	-0.96875 	0.5 	233.292
1.28125 	-0.96875 	0.5 	233.149
1.29688 	-0.96875 	0.5 	232.996
1.3125 	-0.96875 	0.5 	232.84
1.32812 	-0.96875 	0.5 	232.662
1.34375 	-0.96875 	0.5 	232.487
1.35938 	-0.96875 	0.5 	232.321
1.375 	-0.96875 	0.5 	232.133
1.39062 	-0.96875 	0.5 	231.957
1.40625 	-0.96875 	0.5 	231.784
1.42188 	-0.96875 	0.5 	231.604
1.4375 	-0.96875 	0.5 	231.425
1.45312 	-0.96875 	0.5 	231.263
1.46875 	-0.96875 	0.5 	231.118
1.48438 	-0.96875 	0.5 	230.974
-0.5 	-0.953125 	0.5 	231.875
-0.484375 	-0.953125 	0.5 	232.009
-0.46875 	-0.953125 	0.5 	232.147
-0.453125 	-0.953125 	0.5 	232.281
-0.4375 	-0.953125 	0.5 	232.413
-0.421875 	-0.953125 	0.5 	232.542
-0.40625 	-0.953125 	0.5 	232.673
-0.390625 	-0.953125 	0.5 	232.789
-0.375 	-0.953125 	0.5 	232.895
-0.359375 	-0.953125 	0.5 	233.02
-0.34375 	-0.953125 	0.5 	233.131
-0.328125 	-0.953125 	0.5 	233.203
-0.3125 	-0.953125 	0.5 	233.354
-0.296875 	-0.953125 	0.5 	233.454
-0.28125 	-0.953125 	0.5 	233.554
-0.265625 	-0.953125 	0.5 	233.646
-0.25 	-0.953125 	0.5 	233.736
-0.234375 	-0.953125 	0.5 	233.851
-0.21875 	-0.953125 	0.5 	233.947
-0.203125 	-0.953125 	0.5 	234.049
-0.1875 	-0.953125 	0.5 	234.141
-0.171875 	-0.953125 	0.5 	234.226
-0.15625 	-0.953125 	0.5 	234.305
-0.140625 	-0.953125 	0.5 	234.387
-0.125 	-0.953125 	0.5 	234.474
-0.109375 	-0.953125 	0.5 	234.544
-0.09375 	-0.953125 	0.5 	234.619
-0.078125 	-0.953125 	0.5 	234.693
-0.0625 	-0.953125 	0.5 	234.767
-0.046875 	-0.953125 	0.5 	234.839
-0.03125 	-0.953125 	0.5 	234.897
-0.015625 	-0.953125 	0.5 	234.966
0 	-0.953125 	0.5 	235.011
0.015625 	-0.953125 	0.5 	235.089
0.03125 	-0.953125 	0.5 	235.171
0.046875 	-0.953125 	0.5 	235.232
0.0625 	-0.953125 	0.5 	235.307
0.078125 	-0.953125 	0.5 	235.355
0.09375 	-0.953125 	0.5 	235.396
0.109375 	-0.953125 	0.5 	235.458
0.125 	-0.953125 	0.5 	235.514
0.140625 	-0.953125 	0.5 	235.575
0.15625 	-0.953125 	0.5 	235.629
0.171875 	-0.953125 	0.5 	235.687
0.1875 	-0.953125 	0.5 	235.76
0.203125 	-0.953125 	0.5 	235.807
0.21875 	-0.953125 	0.5 	235.875
0.234375 	-0.953125 	0.5 	235.954
0.25 	-0.953125 	0.5 	235.994
0.265625 	-0.953125 	0.5 	236.031
0.28125 	-0.953125 	0.5 	236.086
0.296875 	-0.953125 	0.5 	236.139
0.3125 	-0.953125 	0.5 	236.2
0.328125 	-0.953125 	0.5 	236.254
0.34375 	-0.953125 	0.5 	236.325
0.359375 	-0.953125 	0.5 	236.376
0.375 	-0.953125 	0.5 	236.407
0.390625 	-0.953125 	0.5 	236.479
0.40625 	-0.953125 	0.5 	236.545
0.421875 	-0.953125 	0.5 	236.582
0.4375 	-0.953125 	0.5 	236.631
0.453125 	-0.953125 	0.5 	236.66
0.46875 	-0.953125 	0.5 	236.713
0.484375 	-0.953125 	0.5 	236.76
0.5 	-0.953125 	0.5 	236.81
0.515625 	-0.953125 	0.5 	236.852
0.53125 	-0.953125 	0.5 	236.901
0.546875 	-0.953125 	0.5 	236.924
0.5625 	-0.953125 	0.5 	236.897
0.578125 	-0.953125 	0.5 	236.961
0.59375 	-0.953125 	0.5 	236.982
0.609375 	-0.953125 	0.5 	237.056
0.625 	-0.953125 	0.5 	237.018
0.640625 	-0.953125 	0.5 	237.026
0.65625 	-0.953125 	0.5 	236.986
0.671875 	-0.953125 	0.5 	236.994
0.6875 	-0.953125 	0.5 	236.986
0.703125 	-0.953125 	0.5 	236.991
0.71875 	-0.953125 	0.5 	237.031
0.734375 	-0.953125 	0.5 	237.011
0.75 	-0.953125 	0.5 	236.986
0.765625 	-0.953125 	0.5 	236.925
0.78125 	-0.953125 	0.5 	236.881
0.796875 	-0.953125 	0.5 	236.843
0.8125 	-0.953125 	0.5 	236.79
0.828125 	-0.953125 	0.5 	236.745
0.84375 	-0.953125 	0.5 	236.675
0.859375 	-0.953125 	0.5 	236.587
0.875 	-0.953125 	0.5 	236.498
0.890625 	-0.953125 	0.5 	236.461
0.90625 	-0.953125 	0.5 	236.399
0.921875 	-0.953125 	0.5 	236.359
0.9375 	-0.953125 	0.5 	236.257
0.953125 	-0.953125 	0.5 	236.158
0.96875 	-0.953125 	0.5 	236.031
0.984375 	-0.953125 	0.5 	235.946
1 	-0.953125 	0.5 	235.831
1.01562 	-0.953125 	0.5 	235.712
1.03125 	-0.953125 	0.5 	235.604
1.04688 	-0.953125 	0.5 	235.479
1.0625 	-0.953125 	0.5 	235.352
1.07812 	-0.953125 	0.5 	235.22
1.09375 	-0.953125 	0.5 	235.099
1.10938 	-0.953125 	0.5 	234.959
1.125 	-0.953125 	0.5 	234.816
1.14062 	-0.953125 	0.5 	234.663
1.15625 	-0.953125 	0.5 	234.526
1.17188 	-0.953125 	0.5 	234.381
1.1875 	-0.953125 	0.5 	234.278
1.20312 	-0.953125 	0.5 	234.13
1.21875 	-0.953125 	0.5 	233.997
1.23438 	-0.953125 	0.5 	233.758
1.25 	-0.953125 	0.5 	233.588
1.26562 	-0.953125 	0.5 	233.435
1.28125 	-0.953125 	0.5 	233.282
1.29688 	-0.953125 	0.5 	233.129
1.3125 	-0.953125 	0.5 	232.964
1.32812 	-0.953125 	0.5 	232.777
1.34375 	-0.953125 	0.5 	232.59
1.35938 	-0.953125 	0.5 	232.442
1.375 	-0.953125 	0.5 	232.237
1.39062 	-0.953125 	0.5 	232.053
1.40625 	-0.953125 	0.5 	231.881
1.42188 	-0.953125 	0.5 	231.702
1.4375 	-0.953125 	0.5 	231.496
1.45312 	-0.953125 	0.5 	231.332
1.46875 	-0.953125 	0.5 	231.162
1.48438 	-0.953125 	0.5 	231.004
-0.5 	-0.9375 	0.5 	231.972
-0.484375 	-0.9375 	0.5 	232.108
-0.46875 	-0.9375 	0.5 	232.247
-0.453125 	-0.9375 	0.5 	232.381
-0.4375 	-0.9375 	0.5 	232.52
-0.421875 	-0.9375 	0.5 	232.659
-0.40625 	-0.9375 	0.5 	232.784
-0.390625 	-0.9375 	0.5 	232.896
-0.375 	-0.9375 	0.5 	233.015
-0.359375 	-0.9375 	0.5 	233.131
-0.34375 	-0.9375 	0.5 	233.247
-0.328125 	-0.9375 	0.5 	233.344
-0.3125 	-0.9375 	0.5 	233.467
-0.296875 	-0.9375 	0.5 	233.585
-0.28125 	-0.9375 	0.5 	233.681
-0.265625 	-0.9375 	0.5 	233.775
-0.25 	-0.9375 	0.5 	233.868
-0.234375 	-0.9375 	0.5 	233.982
-0.21875 	-0.9375 	0.5 	234.108
-0.203125 	-0.9375 	0.5 	234.211
-0.1875 	-0.9375 	0.5 	234.282
-0.171875 	-0.9375 	0.5 	234.36
-0.15625 	-0.9375 	0.5 	234.441
-0.140625 	-0.9375 	0.5 	234.519
-0.125 	-0.9375 	0.5 	234.6
-0.109375 	-0.9375 	0.5 	234.683
-0.09375 	-0.9375 	0.5 	234.759
-0.078125 	-0.9375 	0.5 	234.835
-0.0625 	-0.9375 	0.5 	234.917
-0.046875 	-0.9375 	0.5 	234.985
-0.03125 	-0.9375 	0.5 	235.03
-0.015625 	-0.9375 	0.5 	235.08
0 	-0.9375 	0.5 	235.153
0.015625 	-0.9375 	0.5 	235.227
0.03125 	-0.9375 	0.5 	235.294
0.046875 	-0.9375 	0.5 	235.353
0.0625 	-0.9375 	0.5 	235.414
0.078125 	-0.9375 	0.5 	235.474
0.09375 	-0.9375 	0.5 	235.535
0.109375 	-0.9375 	0.5 	235.567
0.125 	-0.9375 	0.5 	235.648
0.140625 	-0.9375 	0.5 	235.706
0.15625 	-0.9375 	0.5 	235.762
0.171875 	-0.9375 	0.5 	235.823
0.1875 	-0.9375 	0.5 	235.89
0.203125 	-0.9375 	0.5 	235.942
0.21875 	-0.9375 	0.5 	236.003
0.234375 	-0.9375 	0.5 	236.061
0.25 	-0.9375 	0.5 	236.133
0.265625 	-0.9375 	0.5 	236.179
0.28125 	-0.9375 	0.5 	236.229
0.296875 	-0.9375 	0.5 	236.291
0.3125 	-0.9375 	0.5 	236.349
0.328125 	-0.9375 	0.5 	236.404
0.34375 	-0.9375 	0.5 	236.455
0.359375 	-0.9375 	0.5 	236.518
0.375 	-0.9375 	0.5 	236.591
0.390625 	-0.9375 	0.5 	236.67
0.40625 	-0.9375 	0.5 	236.721
0.421875 	-0.9375 	0.5 	236.768
0.4375 	-0.9375 	0.5 	236.797
0.453125 	-0.9375 	0.5 	236.84
0.46875 	-0.9375 	0.5 	236.885
0.484375 	-0.9375 	0.5 	236.95
0.5 	-0.9375 	0.5 	236.982
0.515625 	-0.9375 	0.5 	237.028
0.53125 	-0.9375 	0.5 	237.066
0.546875 	-0.9375 	0.5 	237.108
0.5625 	-0.9375 	0.5 	237.142
0.578125 	-0.9375 	0.5 	237.144
0.59375 	-0.9375 	0.5 	237.166
0.609375 	-0.9375 	0.5 	237.206
0.625 	-0.9375 	0.5 	237.243
0.640625 	-0.9375 	0.5 	237.196
0.65625 	-0.9375 	0.5 	237.221
0.671875 	-0.9375 	0.5 	237.184
0.6875 	-0.9375 	0.5 	237.204
0.703125 	-0.9375 	0.5 	237.219
0.71875 	-0.9375 	0.5 	237.223
0.734375 	-0.9375 	0.5 	237.166
0.75 	-0.9375 	0.5 	237.181
0.765625 	-0.9375 	0.5 	237.15
0.78125 	-0.9375 	0.5 	237.127
0.796875 	-0.9375 	0.5 	237.047
0.8125 	-0.9375 	0.5 	236.987
0.828125 	-0.9375 	0.5 	236.942
0.84375 	-0.9375 	0.5 	236.857
0.859375 	-0.9375 	0.5 	236.805
0.875 	-0.9375 	0.5 	236.726
0.890625 	-0.9375 	0.5 	236.781
0.90625 	-0.9375 	0.5 	236.653
0.921875 	-0.9375 	0.5 	236.569
0.9375 	-0.9375 	0.5 	236.465
0.953125 	-0.9375 	0.5 	236.355
0.96875 	-0.9375 	0.5 	236.245
0.984375 	-0.9375 	0.5 	236.13
1 	-0.9375 	0.5 	235.991
1.01562 	-0.9375 	0.5 	235.874
1.03125 	-0.9375 	0.5 	235.8
1.04688 	-0.9375 	0.5 	235.627
1.0625 	-0.9375 	0.5 	235.523
1.07812 	-0.9375 	0.5 	235.42
1.09375 	-0.9375 	0.5 	235.271
1.10938 	-0.9375 	0.5 	235.123
1.125 	-0.9375 	0.5 	234.959
1.14062 	-0.9375 	0.5 	234.788
1.15625 	-0.9375 	0.5 	234.635
1.17188 	-0.9375 	0.5 	234.506
1.1875 	-0.9375 	0.5 	234.38
1.20312 	-0.9375 	0.5 	234.21
1.21875 	-0.9375 	0.5 	234.055
1.23438 	-0.9375 	0.5 	233.879
1.25 	-0.9375 	0.5 	233.747
1.26562 	-0.9375 	0.5 	233.619
1.28125 	-0.9375 	0.5 	233.447
1.29688 	-0.9375 	0.5 	233.22
1.3125 	-0.9375 	0.5 	233.004
1.32812 	-0.9375 	0.5 	232.876
1.34375 	-0.9375 	0.5 	232.685
1.35938 	-0.9375 	0.5 	232.541
1.375 	-0.9375 	0.5 	232.401
1.39062 	-0.9375 	0.5 	232.174
1.40625 	-0.9375 	0.5 	231.971
1.42188 	-0.9375 	0.5 	231.757
1.4375 	-0.9375 	0.5 	231.564
1.45312 	-0.9375 	0.5 	231.414
1.46875 	-0.9375 	0.5 	231.243
1.48438 	-0.9375 	0.5 	231.074
-0.5 	-0.921875 	0.5 	232.076
-0.484375 	-0.921875 	0.5 	232.212
-0.46875 	-0.921875 	0.5 	232.348
-0.453125 	-0.921875 	0.5 	232.488
-0.4375 	-0.921875 	0.5 	232.629
-0.421875 	-0.921875 	0.5 	232.77
-0.40625 	-0.921875 	0.5 	232.89
-0.390625 	-0.921875 	0.5 	233.01
-0.375 	-0.921875 	0.5 	233.143
-0.359375 	-0.921875 	0.5 	233.254
-0.34375 	-0.921875 	0.5 	233.364
-0.328125 	-0.921875 	0.5 	233.494
-0.3125 	-0.921875 	0.5 	233.611
-0.296875 	-0.921875 	0.5 	233.729
-0.28125 	-0.921875 	0.5 	233.829
-0.265625 	-0.921875 	0.5 	233.929
-0.25 	-0.921875 	0.5 	234.021
-0.234375 	-0.921875 	0.5 	234.137
-0.21875 	-0.921875 	0.5 	234.258
-0.203125 	-0.921875 	0.5 	234.358
-0.1875 	-0.921875 	0.5 	234.434
-0.171875 	-0.921875 	0.5 	234.484
-0.15625 	-0.921875 	0.5 	234.569
-0.140625 	-0.921875 	0.5 	234.669
-0.125 	-0.921875 	0.5 	234.75
-0.109375 	-0.921875 	0.5 	234.815
-0.09375 	-0.921875 	0.5 	234.879
-0.078125 	-0.921875 	0.5 	234.974
-0.0625 	-0.921875 	0.5 	235.043
-0.046875 	-0.921875 	0.5 	235.103
-0.03125 	-0.921875 	0.5 	235.161
-0.015625 	-0.921875 	0.5 	235.229
0 	-0.921875 	0.5 	235.273
0.015625 	-0.921875 	0.5 	235.367
0.03125 	-0.921875 	0.5 	235.433
0.046875 	-0.921875 	0.5 	235.488
0.0625 	-0.921875 	0.5 	235.551
0.078125 	-0.921875 	0.5 	235.609
0.09375 	-0.921875 	0.5 	235.677
0.109375 	-0.921875 	0.5 	235.702
0.125 	-0.921875 	0.5 	235.767
0.140625 	-0.921875 	0.5 	235.845
0.15625 	-0.921875 	0.5 	235.903
0.171875 	-0.921875 	0.5 	235.963
0.1875 	-0.921875 	0.5 	236.035
0.203125 	-0.921875 	0.5 	236.104
0.21875 	-0.921875 	0.5 	236.144
0.234375 	-0.921875 	0.5 	236.195
0.25 	-0.921875 	0.5 	236.244
0.265625 	-0.921875 	0.5 	236.298
0.28125 	-0.921875 	0.5 	236.379
0.296875 	-0.921875 	0.5 	236.439
0.3125 	-0.921875 	0.5 	236.488
0.328125 	-0.921875 	0.5 	236.537
0.34375 	-0.921875 	0.5 	236.597
0.359375 	-0.921875 	0.5 	236.668
0.375 	-0.921875 	0.5 	236.74
0.390625 	-0.921875 	0.5 	236.809
0.40625 	-0.921875 	0.5 	236.866
0.421875 	-0.921875 	0.5 	236.908
0.4375 	-0.921875 	0.5 	236.968
0.453125 	-0.921875 	0.5 	237.018
0.46875 	-0.921875 	0.5 	237.062
0.484375 	-0.921875 	0.5 	237.128
0.5 	-0.921875 	0.5 	237.163
0.515625 	-0.921875 	0.5 	237.21
0.53125 	-0.921875 	0.5 	237.243
0.546875 	-0.921875 	0.5 	237.3
0.5625 	-0.921875 	0.5 	237.363
0.578125 	-0.921875 	0.5 	237.345
0.59375 	-0.921875 	0.5 	237.353
0.609375 	-0.921875 	0.5 	237.329
0.625 	-0.921875 	0.5 	237.377
0.640625 	-0.921875 	0.5 	237.406
0.65625 	-0.921875 	0.5 	237.443
0.671875 	-0.921875 	0.5 	237.475
0.6875 	-0.921875 	0.5 	237.423
0.703125 	-0.921875 	0.5 	237.407
0.71875 	-0.921875 	0.5 	237.414
0.734375 	-0.921875 	0.5 	237.407
0.75 	-0.921875 	0.5 	237.359
0.765625 	-0.921875 	0.5 	237.293
0.78125 	-0.921875 	0.5 	237.292
0.796875 	-0.921875 	0.5 	237.269
0.8125 	-0.921875 	0.5 	237.219
0.828125 	-0.921875 	0.5 	237.141
0.84375 	-0.921875 	0.5 	237.074
0.859375 	-0.921875 	0.5 	237.005
0.875 	-0.921875 	0.5 	236.955
0.890625 	-0.921875 	0.5 	236.918
0.90625 	-0.921875 	0.5 	236.876
0.921875 	-0.921875 	0.5 	236.765
0.9375 	-0.921875 	0.5 	236.679
0.953125 	-0.921875 	0.5 	236.569
0.96875 	-0.921875 	0.5 	236.463
0.984375 	-0.921875 	0.5 	236.327
1 	-0.921875 	0.5 	236.217
1.01562 	-0.921875 	0.5 	236.111
1.03125 	-0.921875 	0.5 	235.996
1.04688 	-0.921875 	0.5 	235.85
1.0625 	-0.921875 	0.5 	235.684
1.07812 	-0.921875 	0.5 	235.582
1.09375 	-0.921875 	0.5 	235.447
1.10938 	-0.921875 	0.5 	235.303
1.125 	-0.921875 	0.5 	235.096
1.14062 	-0.921875 	0.5 	234.965
1.15625 	-0.921875 	0.5 	234.795
1.17188 	-0.921875 	0.5 	234.645
1.1875 	-0.921875 	0.5 	234.5
1.20312 	-0.921875 	0.5 	234.434
1.21875 	-0.921875 	0.5 	234.199
1.23438 	-0.921875 	0.5 	233.989
1.25 	-0.921875 	0.5 	233.802
1.26562 	-0.921875 	0.5 	233.698
1.28125 	-0.921875 	0.5 	233.507
1.29688 	-0.921875 	0.5 	233.246
1.3125 	-0.921875 	0.5 	233.103
1.32812 	-0.921875 	0.5 	232.902
1.34375 	-0.921875 	0.5 	232.792
1.35938 	-0.921875 	0.5 	232.639
1.375 	-0.921875 	0.5 	232.436
1.39062 	-0.921875 	0.5 	232.322
1.40625 	-0.921875 	0.5 	232.068
1.42188 	-0.921875 	0.5 	231.865
1.4375 	-0.921875 	0.5 	231.649
1.45312 	-0.921875 	0.5 	231.496
1.46875 	-0.921875 	0.5 	231.326
1.48438 	-0.921875 	0.5 	231.155
-0.5 	-0.90625 	0.5 	232.176
-0.484375 	-0.90625 	0.5 	232.314
-0.46875 	-0.90625 	0.5 	232.461
-0.453125 	-0.90625 	0.5 	232.587
-0.4375 	-0.90625 	0.5 	232.725
-0.421875 	-0.90625 	0.5 	232.887
-0.40625 	-0.90625 	0.5 	233.014
-0.390625 	-0.90625 	0.5 	233.137
-0.375 	-0.90625 	0.5 	233.27
-0.359375 	-0.90625 	0.5 	233.384
-0.34375 	-0.90625 	0.5 	233.478
-0.328125 	-0.90625 	0.5 	233.611
-0.3125 	-0.90625 	0.5 	233.733
-0.296875 	-0.90625 	0.5 	233.86
-0.28125 	-0.90625 	0.5 	233.97
-0.265625 	-0.90625 	0.5 	234.072
-0.25 	-0.90625 	0.5 	234.183
-0.234375 	-0.90625 	0.5 	234.298
-0.21875 	-0.90625 	0.5 	234.41
-0.203125 	-0.90625 	0.5 	234.477
-0.1875 	-0.90625 	0.5 	234.553
-0.171875 	-0.90625 	0.5 	234.593
-0.15625 	-0.90625 	0.5 	234.702
-0.140625 	-0.90625 	0.5 	234.809
-0.125 	-0.90625 	0.5 	234.895
-0.109375 	-0.90625 	0.5 	234.999
-0.09375 	-0.90625 	0.5 	235.074
-0.078125 	-0.90625 	0.5 	235.119
-0.0625 	-0.90625 	0.5 	235.156
-0.046875 	-0.90625 	0.5 	235.231
-0.03125 	-0.90625 	0.5 	235.289
-0.015625 	-0.90625 	0.5 	235.366
0 	-0.90625 	0.5 	235.441
0.015625 	-0.90625 	0.5 	235.516
0.03125 	-0.90625 	0.5 	235.573
0.046875 	-0.90625 	0.5 	235.62
0.0625 	-0.90625 	0.5 	235.683
0.078125 	-0.90625 	0.5 	235.738
0.09375 	-0.90625 	0.5 	235.785
0.109375 	-0.90625 	0.5 	235.845
0.125 	-0.90625 	0.5 	235.923
0.140625 	-0.90625 	0.5 	235.99
0.15625 	-0.90625 	0.5 	236.027
0.171875 	-0.90625 	0.5 	236.1
0.1875 	-0.90625 	0.5 	236.17
0.203125 	-0.90625 	0.5 	236.234
0.21875 	-0.90625 	0.5 	236.298
0.234375 	-0.90625 	0.5 	236.329
0.25 	-0.90625 	0.5 	236.373
0.265625 	-0.90625 	0.5 	236.429
0.28125 	-0.90625 	0.5 	236.502
0.296875 	-0.90625 	0.5 	236.585
0.3125 	-0.90625 	0.5 	236.649
0.328125 	-0.90625 	0.5 	236.692
0.34375 	-0.90625 	0.5 	236.754
0.359375 	-0.90625 	0.5 	236.84
0.375 	-0.90625 	0.5 	236.888
0.390625 	-0.90625 	0.5 	236.934
0.40625 	-0.90625 	0.5 	237.019
0.421875 	-0.90625 	0.5 	237.113
0.4375 	-0.90625 	0.5 	237.138
0.453125 	-0.90625 	0.5 	237.164
0.46875 	-0.90625 	0.5 	237.233
0.484375 	-0.90625 	0.5 	237.297
0.5 	-0.90625 	0.5 	237.362
0.515625 	-0.90625 	0.5 	237.407
0.53125 	-0.90625 	0.5 	237.459
0.546875 	-0.90625 	0.5 	237.502
0.5625 	-0.90625 	0.5 	237.543
0.578125 	-0.90625 	0.5 	237.588
0.59375 	-0.90625 	0.5 	237.545
0.609375 	-0.90625 	0.5 	237.593
0.625 	-0.90625 	0.5 	237.586
0.640625 	-0.90625 	0.5 	237.638
0.65625 	-0.90625 	0.5 	237.669
0.671875 	-0.90625 	0.5 	237.661
0.6875 	-0.90625 	0.5 	237.663
0.703125 	-0.90625 	0.5 	237.658
0.71875 	-0.90625 	0.5 	237.647
0.734375 	-0.90625 	0.5 	237.615
0.75 	-0.90625 	0.5 	237.566
0.765625 	-0.90625 	0.5 	237.543
0.78125 	-0.90625 	0.5 	237.544
0.796875 	-0.90625 	0.5 	237.53
0.8125 	-0.90625 	0.5 	237.478
0.828125 	-0.90625 	0.5 	237.335
0.84375 	-0.90625 	0.5 	237.338
0.859375 	-0.90625 	0.5 	237.273
0.875 	-0.90625 	0.5 	237.165
0.890625 	-0.90625 	0.5 	237.168
0.90625 	-0.90625 	0.5 	237.063
0.921875 	-0.90625 	0.5 	236.975
0.9375 	-0.90625 	0.5 	236.861
0.953125 	-0.90625 	0.5 	236.744
0.96875 	-0.90625 	0.5 	236.739
0.984375 	-0.90625 	0.5 	236.524
1 	-0.90625 	0.5 	236.416
1.01562 	-0.90625 	0.5 	236.337
1.03125 	-0.90625 	0.5 	236.166
1.04688 	-0.90625 	0.5 	236.036
1.0625 	-0.90625 	0.5 	235.895
1.07812 	-0.90625 	0.5 	235.749
1.09375 	-0.90625 	0.5 	235.613
1.10938 	-0.90625 	0.5 	235.466
1.125 	-0.90625 	0.5 	235.298
1.14062 	-0.90625 	0.5 	235.13
1.15625 	-0.90625 	0.5 	234.942
1.17188 	-0.90625 	0.5 	234.784
1.1875 	-0.90625 	0.5 	234.626
1.20312 	-0.90625 	0.5 	234.517
1.21875 	-0.90625 	0.5 	234.285
1.23438 	-0.90625 	0.5 	234.099
1.25 	-0.90625 	0.5 	233.87
1.26562 	-0.90625 	0.5 	233.789
1.28125 	-0.90625 	0.5 	233.593
1.29688 	-0.90625 	0.5 	233.35
1.3125 	-0.90625 	0.5 	233.202
1.32812 	-0.90625 	0.5 	233.001
1.34375 	-0.90625 	0.5 	232.88
1.35938 	-0.90625 	0.5 	232.708
1.375 	-0.90625 	0.5 	232.58
1.39062 	-0.90625 	0.5 	232.415
1.40625 	-0.90625 	0.5 	232.166
1.42188 	-0.90625 	0.5 	231.966
1.4375 	-0.90625 	0.5 	231.766
1.45312 	-0.90625 	0.5 	231.578
1.46875 	-0.90625 	0.5 	231.403
1.48438 	-0.90625 	0.5 	231.225
-0.5 	-0.890625 	0.5 	232.273
-0.484375 	-0.890625 	0.5 	232.42
-0.46875 	-0.890625 	0.5 	232.568
-0.453125 	-0.890625 	0.5 	232.711
-0.4375 	-0.890625 	0.5 	232.868
-0.421875 	-0.890625 	0.5 	233.01
-0.40625 	-0.890625 	0.5 	233.145
-0.390625 	-0.890625 	0.5 	233.271
-0.375 	-0.890625 	0.5 	233.396
-0.359375 	-0.890625 	0.5 	233.512
-0.34375 	-0.890625 	0.5 	233.622
-0.328125 	-0.890625 	0.5 	233.732
-0.3125 	-0.890625 	0.5 	233.871
-0.296875 	-0.890625 	0.5 	234.001
-0.28125 	-0.890625 	0.5 	234.116
-0.265625 	-0.890625 	0.5 	234.212
-0.25 	-0.890625 	0.5 	234.325
-0.234375 	-0.890625 	0.5 	234.438
-0.21875 	-0.890625 	0.5 	234.541
-0.203125 	-0.890625 	0.5 	234.638
-0.1875 	-0.890625 	0.5 	234.636
-0.171875 	-0.890625 	0.5 	234.746
-0.15625 	-0.890625 	0.5 	234.836
-0.140625 	-0.890625 	0.5 	234.929
-0.125 	-0.890625 	0.5 	235.02
-0.109375 	-0.890625 	0.5 	235.135
-0.09375 	-0.890625 	0.5 	235.209
-0.078125 	-0.890625 	0.5 	235.282
-0.0625 	-0.890625 	0.5 	235.291
-0.046875 	-0.890625 	0.5 	235.353
-0.03125 	-0.890625 	0.5 	235.435
-0.015625 	-0.890625 	0.5 	235.514
0 	-0.890625 	0.5 	235.597
0.015625 	-0.890625 	0.5 	235.661
0.03125 	-0.890625 	0.5 	235.715
0.046875 	-0.890625 	0.5 	235.752
0.0625 	-0.890625 	0.5 	235.809
0.078125 	-0.890625 	0.5 	235.872
0.09375 	-0.890625 	0.5 	235.91
0.109375 	-0.890625 	0.5 	235.983
0.125 	-0.890625 	0.5 	236.063
0.140625 	-0.890625 	0.5 	236.136
0.15625 	-0.890625 	0.5 	236.187
0.171875 	-0.890625 	0.5 	236.237
0.1875 	-0.890625 	0.5 	236.293
0.203125 	-0.890625 	0.5 	236.347
0.21875 	-0.890625 	0.5 	236.439
0.234375 	-0.890625 	0.5 	236.488
0.25 	-0.890625 	0.5 	236.531
0.265625 	-0.890625 	0.5 	236.589
0.28125 	-0.890625 	0.5 	236.645
0.296875 	-0.890625 	0.5 	236.732
0.3125 	-0.890625 	0.5 	236.813
0.328125 	-0.890625 	0.5 	236.852