-0.5 	-1 	0.5 	-32.2689
-0.484375 	-1 	0.5 	-32.0033
-0.46875 	-1 	0.5 	-31.683
-0.453125 	-1 	0.5 	-31.2361
-0.4375 	-1 	0.5 	-30.891
-0.421875 	-1 	0.5 	-30.5648
-0.40625 	-1 	0.5 	-30.2326
-0.390625 	-1 	0.5 	-29.9232
-0.375 	-1 	0.5 	-29.6189
-0.359375 	-1 	0.5 	-29.3407
-0.34375 	-1 	0.5 	-29.0647
-0.328125 	-1 	0.5 	-28.7625
-0.3125 	-1 	0.5 	-28.3979
-0.296875 	-1 	0.5 	-28.0566
-0.28125 	-1 	0.5 	-27.7568
-0.265625 	-1 	0.5 	-27.5098
-0.25 	-1 	0.5 	-27.2969
-0.234375 	-1 	0.5 	-27.0323
-0.21875 	-1 	0.5 	-26.7306
-0.203125 	-1 	0.5 	-26.4017
-0.1875 	-1 	0.5 	-26.1364
-0.171875 	-1 	0.5 	-25.8645
-0.15625 	-1 	0.5 	-25.6325
-0.140625 	-1 	0.5 	-25.3174
-0.125 	-1 	0.5 	-25.0988
-0.109375 	-1 	0.5 	-24.8688
-0.09375 	-1 	0.5 	-24.6324
-0.078125 	-1 	0.5 	-24.4381
-0.0625 	-1 	0.5 	-24.2161
-0.046875 	-1 	0.5 	-23.98
-0.03125 	-1 	0.5 	-23.7439
-0.015625 	-1 	0.5 	-23.5198
0 	-1 	0.5 	-23.3213
0.015625 	-1 	0.5 	-23.1178
0.03125 	-1 	0.5 	-22.9359
0.046875 	-1 	0.5 	-22.7325
0.0625 	-1 	0.5 	-22.5315
0.078125 	-1 	0.5 	-22.397
0.09375 	-1 	0.5 	-22.2593
0.109375 	-1 	0.5 	-22.1141
0.125 	-1 	0.5 	-21.9941
0.140625 	-1 	0.5 	-21.8244
0.15625 	-1 	0.5 	-21.6766
0.171875 	-1 	0.5 	-21.5509
0.1875 	-1 	0.5 	-21.4588
0.203125 	-1 	0.5 	-21.3109
0.21875 	-1 	0.5 	-21.4415
0.234375 	-1 	0.5 	-21.2437
0.25 	-1 	0.5 	-21.1094
0.265625 	-1 	0.5 	-21.0787
0.28125 	-1 	0.5 	-21.0377
0.296875 	-1 	0.5 	-21.0049
0.3125 	-1 	0.5 	-20.9708
0.328125 	-1 	0.5 	-21.0384
0.34375 	-1 	0.5 	-20.9501
0.359375 	-1 	0.5 	-20.912
0.375 	-1 	0.5 	-20.9137
0.390625 	-1 	0.5 	-20.8701
0.40625 	-1 	0.5 	-20.8437
0.421875 	-1 	0.5 	-21.0325
0.4375 	-1 	0.5 	-21.3059
0.453125 	-1 	0.5 	-21.2383
0.46875 	-1 	0.5 	-21.2651
0.484375 	-1 	0.5 	-21.2915
0.5 	-1 	0.5 	-21.3334
0.515625 	-1 	0.5 	-21.4405
0.53125 	-1 	0.5 	-21.6002
0.546875 	-1 	0.5 	-21.6988
0.5625 	-1 	0.5 	-21.8802
0.578125 	-1 	0.5 	-22.0131
0.59375 	-1 	0.5 	-22.0993
0.609375 	-1 	0.5 	-22.2666
0.625 	-1 	0.5 	-22.4867
0.640625 	-1 	0.5 	-22.7732
0.65625 	-1 	0.5 	-22.8855
0.671875 	-1 	0.5 	-23.1932
0.6875 	-1 	0.5 	-23.2827
0.703125 	-1 	0.5 	-23.4338
0.71875 	-1 	0.5 	-23.7204
0.734375 	-1 	0.5 	-23.9195
0.75 	-1 	0.5 	-24.1014
0.765625 	-1 	0.5 	-24.1664
0.78125 	-1 	0.5 	-24.4843
0.796875 	-1 	0.5 	-24.8829
0.8125 	-1 	0.5 	-25.1007
0.828125 	-1 	0.5 	-25.3075
0.84375 	-1 	0.5 	-25.6115
0.859375 	-1 	0.5 	-25.8722
0.875 	-1 	0.5 	-26.1237
0.890625 	-1 	0.5 	-26.4114
0.90625 	-1 	0.5 	-26.7576
0.921875 	-1 	0.5 	-27.0478
0.9375 	-1 	0.5 	-27.3379
0.953125 	-1 	0.5 	-27.6389
0.96875 	-1 	0.5 	-28.006
0.984375 	-1 	0.5 	-28.2606
1 	-1 	0.5 	-28.5407
1.01562 	-1 	0.5 	-28.9137
1.03125 	-1 	0.5 	-29.2148
1.04688 	-1 	0.5 	-29.5403
1.0625 	-1 	0.5 	-29.8619
1.07812 	-1 	0.5 	-30.1616
1.09375 	-1 	0.5 	-30.5039
1.10938 	-1 	0.5 	-30.8403
1.125 	-1 	0.5 	-31.1431
1.14062 	-1 	0.5 	-31.4942
1.15625 	-1 	0.5 	-31.8458
1.17188 	-1 	0.5 	-32.1974
1.1875 	-1 	0.5 	-32.546
1.20312 	-1 	0.5 	-32.855
1.21875 	-1 	0.5 	-33.1626
1.23438 	-1 	0.5 	-33.4701
1.25 	-1 	0.5 	-33.8127
1.26562 	-1 	0.5 	-34.204
1.28125 	-1 	0.5 	-34.6334
1.29688 	-1 	0.5 	-34.9946
1.3125 	-1 	0.5 	-35.3587
1.32812 	-1 	0.5 	-35.7153
1.34375 	-1 	0.5 	-36.0248
1.35938 	-1 	0.5 	-36.3342
1.375 	-1 	0.5 	-36.6524
1.39062 	-1 	0.5 	-36.9682
1.40625 	-1 	0.5 	-37.2536
1.42188 	-1 	0.5 	-37.533
1.4375 	-1 	0.5 	-37.9345
1.45312 	-1 	0.5 	-38.3008
1.46875 	-1 	0.5 	-38.6601
1.48438 	-1 	0.5 	-38.9938
-0.5 	-0.984375 	0.5 	-32.2991
-0.484375 	-0.984375 	0.5 	-31.9248
-0.46875 	-0.984375 	0.5 	-31.3846
-0.453125 	-0.984375 	0.5 	-31.0028
-0.4375 	-0.984375 	0.5 	-30.6722
-0.421875 	-0.984375 	0.5 	-30.34
-0.40625 	-0.984375 	0.5 	-30.0196
-0.390625 	-0.984375 	0.5 	-29.7135
-0.375 	-0.984375 	0.5 	-29.4027
-0.359375 	-0.984375 	0.5 	-29.1027
-0.34375 	-0.984375 	0.5 	-28.8183
-0.328125 	-0.984375 	0.5 	-28.4973
-0.3125 	-0.984375 	0.5 	-28.1542
-0.296875 	-0.984375 	0.5 	-27.8015
-0.28125 	-0.984375 	0.5 	-27.4253
-0.265625 	-0.984375 	0.5 	-27.1985
-0.25 	-0.984375 	0.5 	-27.0332
-0.234375 	-0.984375 	0.5 	-26.6305
-0.21875 	-0.984375 	0.5 	-26.465
-0.203125 	-0.984375 	0.5 	-26.0862
-0.1875 	-0.984375 	0.5 	-25.7811
-0.171875 	-0.984375 	0.5 	-25.5637
-0.15625 	-0.984375 	0.5 	-25.265
-0.140625 	-0.984375 	0.5 	-25.0046
-0.125 	-0.984375 	0.5 	-24.7263
-0.109375 	-0.984375 	0.5 	-24.4914
-0.09375 	-0.984375 	0.5 	-24.2061
-0.078125 	-0.984375 	0.5 	-23.9875
-0.0625 	-0.984375 	0.5 	-23.8976
-0.046875 	-0.984375 	0.5 	-23.553
-0.03125 	-0.984375 	0.5 	-23.3515
-0.015625 	-0.984375 	0.5 	-23.1098
0 	-0.984375 	0.5 	-22.9371
0.015625 	-0.984375 	0.5 	-22.7283
0.03125 	-0.984375 	0.5 	-22.5325
0.046875 	-0.984375 	0.5 	-22.2509
0.0625 	-0.984375 	0.5 	-22.0597
0.078125 	-0.984375 	0.5 	-21.9957
0.09375 	-0.984375 	0.5 	-21.8373
0.109375 	-0.984375 	0.5 	-21.7067
0.125 	-0.984375 	0.5 	-21.4766
0.140625 	-0.984375 	0.5 	-21.3822
0.15625 	-0.984375 	0.5 	-21.2759
0.171875 	-0.984375 	0.5 	-21.106
0.1875 	-0.984375 	0.5 	-21.1178
0.203125 	-0.984375 	0.5 	-20.9355
0.21875 	-0.984375 	0.5 	-20.8446
0.234375 	-0.984375 	0.5 	-20.8062
0.25 	-0.984375 	0.5 	-20.7136
0.265625 	-0.984375 	0.5 	-20.647
0.28125 	-0.984375 	0.5 	-20.6226
0.296875 	-0.984375 	0.5 	-20.5243
0.3125 	-0.984375 	0.5 	-20.7179
0.328125 	-0.984375 	0.5 	-20.6093
0.34375 	-0.984375 	0.5 	-20.5163
0.359375 	-0.984375 	0.5 	-20.5148
0.375 	-0.984375 	0.5 	-20.4913
0.390625 	-0.984375 	0.5 	-20.4087
0.40625 	-0.984375 	0.5 	-20.4606
0.421875 	-0.984375 	0.5 	-20.5342
0.4375 	-0.984375 	0.5 	-20.6438
0.453125 	-0.984375 	0.5 	-20.7522
0.46875 	-0.984375 	0.5 	-20.8525
0.484375 	-0.984375 	0.5 	-20.9133
0.5 	-0.984375 	0.5 	-20.92
0.515625 	-0.984375 	0.5 	-20.7597
0.53125 	-0.984375 	0.5 	-20.9606
0.546875 	-0.984375 	0.5 	-21.2023
0.5625 	-0.984375 	0.5 	-21.3552
0.578125 	-0.984375 	0.5 	-21.4904
0.59375 	-0.984375 	0.5 	-21.6591
0.609375 	-0.984375 	0.5 	-21.8684
0.625 	-0.984375 	0.5 	-22.0849
0.640625 	-0.984375 	0.5 	-22.4138
0.65625 	-0.984375 	0.5 	-22.5706
0.671875 	-0.984375 	0.5 	-22.6975
0.6875 	-0.984375 	0.5 	-22.818
0.703125 	-0.984375 	0.5 	-22.9888
0.71875 	-0.984375 	0.5 	-23.2575
0.734375 	-0.984375 	0.5 	-23.5561
0.75 	-0.984375 	0.5 	-23.6799
0.765625 	-0.984375 	0.5 	-23.947
0.78125 	-0.984375 	0.5 	-24.2085
0.796875 	-0.984375 	0.5 	-24.3918
0.8125 	-0.984375 	0.5 	-24.6002
0.828125 	-0.984375 	0.5 	-24.9843
0.84375 	-0.984375 	0.5 	-25.2231
0.859375 	-0.984375 	0.5 	-25.6672
0.875 	-0.984375 	0.5 	-25.924
0.890625 	-0.984375 	0.5 	-26.1769
0.90625 	-0.984375 	0.5 	-26.4617
0.921875 	-0.984375 	0.5 	-26.7797
0.9375 	-0.984375 	0.5 	-27.0857
0.953125 	-0.984375 	0.5 	-27.4011
0.96875 	-0.984375 	0.5 	-27.6704
0.984375 	-0.984375 	0.5 	-28.1295
1 	-0.984375 	0.5 	-28.3613
1.01562 	-0.984375 	0.5 	-28.6513
1.03125 	-0.984375 	0.5 	-28.9723
1.04688 	-0.984375 	0.5 	-29.3005
1.0625 	-0.984375 	0.5 	-29.6303
1.07812 	-0.984375 	0.5 	-29.983
1.09375 	-0.984375 	0.5 	-30.314
1.10938 	-0.984375 	0.5 	-30.6593
1.125 	-0.984375 	0.5 	-30.9611
1.14062 	-0.984375 	0.5 	-31.2664
1.15625 	-0.984375 	0.5 	-31.6672
1.17188 	-0.984375 	0.5 	-32.0351
1.1875 	-0.984375 	0.5 	-32.4655
1.20312 	-0.984375 	0.5 	-32.764
1.21875 	-0.984375 	0.5 	-33.09
1.23438 	-0.984375 	0.5 	-33.4066
1.25 	-0.984375 	0.5 	-33.71
1.26562 	-0.984375 	0.5 	-34.0529
1.28125 	-0.984375 	0.5 	-34.4877
1.29688 	-0.984375 	0.5 	-34.8598
1.3125 	-0.984375 	0.5 	-35.2278
1.32812 	-0.984375 	0.5 	-35.5732
1.34375 	-0.984375 	0.5 	-35.8865
1.35938 	-0.984375 	0.5 	-36.2681
1.375 	-0.984375 	0.5 	-36.5834
1.39062 	-0.984375 	0.5 	-36.8288
1.40625 	-0.984375 	0.5 	-37.0749
1.42188 	-0.984375 	0.5 	-37.5124
1.4375 	-0.984375 	0.5 	-37.8791
1.45312 	-0.984375 	0.5 	-38.2417
1.46875 	-0.984375 	0.5 	-38.6088
1.48438 	-0.984375 	0.5 	-38.9526
-0.5 	-0.96875 	0.5 	-31.9908
-0.484375 	-0.96875 	0.5 	-31.5274
-0.46875 	-0.96875 	0.5 	-31.0575
-0.453125 	-0.96875 	0.5 	-30.8053
-0.4375 	-0.96875 	0.5 	-30.4739
-0.421875 	-0.96875 	0.5 	-30.1386
-0.40625 	-0.96875 	0.5 	-29.8097
-0.390625 	-0.96875 	0.5 	-29.5038
-0.375 	-0.96875 	0.5 	-29.1941
-0.359375 	-0.96875 	0.5 	-28.8921
-0.34375 	-0.96875 	0.5 	-28.5899
-0.328125 	-0.96875 	0.5 	-28.2467
-0.3125 	-0.96875 	0.5 	-27.8902
-0.296875 	-0.96875 	0.5 	-27.5483
-0.28125 	-0.96875 	0.5 	-27.1736
-0.265625 	-0.96875 	0.5 	-26.8327
-0.25 	-0.96875 	0.5 	-26.6041
-0.234375 	-0.96875 	0.5 	-26.324
-0.21875 	-0.96875 	0.5 	-26.0218
-0.203125 	-0.96875 	0.5 	-25.7197
-0.1875 	-0.96875 	0.5 	-25.4331
-0.171875 	-0.96875 	0.5 	-25.1926
-0.15625 	-0.96875 	0.5 	-24.9466
-0.140625 	-0.96875 	0.5 	-24.6298
-0.125 	-0.96875 	0.5 	-24.3231
-0.109375 	-0.96875 	0.5 	-24.0733
-0.09375 	-0.96875 	0.5 	-23.7794
-0.078125 	-0.96875 	0.5 	-23.5623
-0.0625 	-0.96875 	0.5 	-23.3641
-0.046875 	-0.96875 	0.5 	-23.1873
-0.03125 	-0.96875 	0.5 	-22.9791
-0.015625 	-0.96875 	0.5 	-22.7169
0 	-0.96875 	0.5 	-22.4933
0.015625 	-0.96875 	0.5 	-22.2929
0.03125 	-0.96875 	0.5 	-22.0377
0.046875 	-0.96875 	0.5 	-21.8022
0.0625 	-0.96875 	0.5 	-21.6493
0.078125 	-0.96875 	0.5 	-21.5248
0.09375 	-0.96875 	0.5 	-21.4304
0.109375 	-0.96875 	0.5 	-21.2832
0.125 	-0.96875 	0.5 	-21.061
0.140625 	-0.96875 	0.5 	-20.9818
0.15625 	-0.96875 	0.5 	-20.8292
0.171875 	-0.96875 	0.5 	-20.6622
0.1875 	-0.96875 	0.5 	-20.5438
0.203125 	-0.96875 	0.5 	-20.5777
0.21875 	-0.96875 	0.5 	-20.3899
0.234375 	-0.96875 	0.5 	-20.3444
0.25 	-0.96875 	0.5 	-20.228
0.265625 	-0.96875 	0.5 	-20.1927
0.28125 	-0.96875 	0.5 	-20.0604
0.296875 	-0.96875 	0.5 	-20.0968
0.3125 	-0.96875 	0.5 	-20.0672
0.328125 	-0.96875 	0.5 	-20.0774
0.34375 	-0.96875 	0.5 	-20.0471
0.359375 	-0.96875 	0.5 	-20.0367
0.375 	-0.96875 	0.5 	-20.0504
0.390625 	-0.96875 	0.5 	-19.9416
0.40625 	-0.96875 	0.5 	-20.0041
0.421875 	-0.96875 	0.5 	-20.024
0.4375 	-0.96875 	0.5 	-20.1577
0.453125 	-0.96875 	0.5 	-20.2658
0.46875 	-0.96875 	0.5 	-20.3867
0.484375 	-0.96875 	0.5 	-20.4579
0.5 	-0.96875 	0.5 	-20.495
0.515625 	-0.96875 	0.5 	-20.4604
0.53125 	-0.96875 	0.5 	-20.601
0.546875 	-0.96875 	0.5 	-20.7475
0.5625 	-0.96875 	0.5 	-20.9318
0.578125 	-0.96875 	0.5 	-21.0647
0.59375 	-0.96875 	0.5 	-21.2199
0.609375 	-0.96875 	0.5 	-21.5296
0.625 	-0.96875 	0.5 	-21.689
0.640625 	-0.96875 	0.5 	-21.8543
0.65625 	-0.96875 	0.5 	-22.0245
0.671875 	-0.96875 	0.5 	-22.218
0.6875 	-0.96875 	0.5 	-22.4131
0.703125 	-0.96875 	0.5 	-22.6346
0.71875 	-0.96875 	0.5 	-22.8561
0.734375 	-0.96875 	0.5 	-23.1679
0.75 	-0.96875 	0.5 	-23.4382
0.765625 	-0.96875 	0.5 	-23.7425
0.78125 	-0.96875 	0.5 	-23.9785
0.796875 	-0.96875 	0.5 	-24.085
0.8125 	-0.96875 	0.5 	-24.2797
0.828125 	-0.96875 	0.5 	-24.5926
0.84375 	-0.96875 	0.5 	-24.8448
0.859375 	-0.96875 	0.5 	-25.2588
0.875 	-0.96875 	0.5 	-25.6068
0.890625 	-0.96875 	0.5 	-25.8089
0.90625 	-0.96875 	0.5 	-26.1736
0.921875 	-0.96875 	0.5 	-26.5097
0.9375 	-0.96875 	0.5 	-26.7902
0.953125 	-0.96875 	0.5 	-27.1673
0.96875 	-0.96875 	0.5 	-27.3545
0.984375 	-0.96875 	0.5 	-27.7622
1 	-0.96875 	0.5 	-28.0356
1.01562 	-0.96875 	0.5 	-28.4248
1.03125 	-0.96875 	0.5 	-28.7588
1.04688 	-0.96875 	0.5 	-29.0839
1.0625 	-0.96875 	0.5 	-29.4217
1.07812 	-0.96875 	0.5 	-29.687
1.09375 	-0.96875 	0.5 	-30.1426
1.10938 	-0.96875 	0.5 	-30.4783
1.125 	-0.96875 	0.5 	-30.779
1.14062 	-0.96875 	0.5 	-31.1637
1.15625 	-0.96875 	0.5 	-31.5166
1.17188 	-0.96875 	0.5 	-31.8809
1.1875 	-0.96875 	0.5 	-32.3335
1.20312 	-0.96875 	0.5 	-32.6663
1.21875 	-0.96875 	0.5 	-32.9779
1.23438 	-0.96875 	0.5 	-33.2943
1.25 	-0.96875 	0.5 	-33.5313
1.26562 	-0.96875 	0.5 	-33.7638
1.28125 	-0.96875 	0.5 	-34.2496
1.29688 	-0.96875 	0.5 	-34.7123
1.3125 	-0.96875 	0.5 	-35.0602
1.32812 	-0.96875 	0.5 	-35.4445
1.34375 	-0.96875 	0.5 	-35.8593
1.35938 	-0.96875 	0.5 	-36.1949
1.375 	-0.96875 	0.5 	-36.5387
1.39062 	-0.96875 	0.5 	-36.8428
1.40625 	-0.96875 	0.5 	-37.1172
1.42188 	-0.96875 	0.5 	-37.4762
1.4375 	-0.96875 	0.5 	-37.8265
1.45312 	-0.96875 	0.5 	-38.1848
1.46875 	-0.96875 	0.5 	-38.5502
1.48438 	-0.96875 	0.5 	-38.907
-0.5 	-0.953125 	0.5 	-31.746
-0.484375 	-0.953125 	0.5 	-31.0906
-0.46875 	-0.953125 	0.5 	-30.979
-0.453125 	-0.953125 	0.5 	-30.5604
-0.4375 	-0.953125 	0.5 	-30.3863
-0.421875 	-0.953125 	0.5 	-30.0071
-0.40625 	-0.953125 	0.5 	-29.6129
-0.390625 	-0.953125 	0.5 	-29.2941
-0.375 	-0.953125 	0.5 	-28.9904
-0.359375 	-0.953125 	0.5 	-28.6856
-0.34375 	-0.953125 	0.5 	-28.3426
-0.328125 	-0.953125 	0.5 	-28.061
-0.3125 	-0.953125 	0.5 	-27.6594
-0.296875 	-0.953125 	0.5 	-27.3045
-0.28125 	-0.953125 	0.5 	-26.9222
-0.265625 	-0.953125 	0.5 	-26.5996
-0.25 	-0.953125 	0.5 	-26.3515
-0.234375 	-0.953125 	0.5 	-25.8881
-0.21875 	-0.953125 	0.5 	-25.5931
-0.203125 	-0.953125 	0.5 	-25.354
-0.1875 	-0.953125 	0.5 	-24.9782
-0.171875 	-0.953125 	0.5 	-24.8214
-0.15625 	-0.953125 	0.5 	-24.5762
-0.140625 	-0.953125 	0.5 	-24.2619
-0.125 	-0.953125 	0.5 	-23.9536
-0.109375 	-0.953125 	0.5 	-23.7021
-0.09375 	-0.953125 	0.5 	-23.5205
-0.078125 	-0.953125 	0.5 	-23.3388
-0.0625 	-0.953125 	0.5 	-22.9675
-0.046875 	-0.953125 	0.5 	-22.8151
-0.03125 	-0.953125 	0.5 	-22.5937
-0.015625 	-0.953125 	0.5 	-22.3634
0 	-0.953125 	0.5 	-22.0972
0.015625 	-0.953125 	0.5 	-21.8559
0.03125 	-0.953125 	0.5 	-21.6045
0.046875 	-0.953125 	0.5 	-21.3739
0.0625 	-0.953125 	0.5 	-21.2271
0.078125 	-0.953125 	0.5 	-21.2007
0.09375 	-0.953125 	0.5 	-21.0151
0.109375 	-0.953125 	0.5 	-20.894
0.125 	-0.953125 	0.5 	-20.7274
0.140625 	-0.953125 	0.5 	-20.5286
0.15625 	-0.953125 	0.5 	-20.2176
0.171875 	-0.953125 	0.5 	-20.1772
0.1875 	-0.953125 	0.5 	-20.0931
0.203125 	-0.953125 	0.5 	-20.1118
0.21875 	-0.953125 	0.5 	-19.9345
0.234375 	-0.953125 	0.5 	-19.8364
0.25 	-0.953125 	0.5 	-19.6801
0.265625 	-0.953125 	0.5 	-19.6471
0.28125 	-0.953125 	0.5 	-19.4177
0.296875 	-0.953125 	0.5 	-19.5485
0.3125 	-0.953125 	0.5 	-19.5828
0.328125 	-0.953125 	0.5 	-19.5572
0.34375 	-0.953125 	0.5 	-19.5646
0.359375 	-0.953125 	0.5 	-19.6109
0.375 	-0.953125 	0.5 	-19.5715
0.390625 	-0.953125 	0.5 	-19.5114
0.40625 	-0.953125 	0.5 	-19.5342
0.421875 	-0.953125 	0.5 	-19.6086
0.4375 	-0.953125 	0.5 	-19.683
0.453125 	-0.953125 	0.5 	-19.7702
0.46875 	-0.953125 	0.5 	-19.8703
0.484375 	-0.953125 	0.5 	-19.9705
0.5 	-0.953125 	0.5 	-20.0633
0.515625 	-0.953125 	0.5 	-20.0962
0.53125 	-0.953125 	0.5 	-20.1758
0.546875 	-0.953125 	0.5 	-20.2926
0.5625 	-0.953125 	0.5 	-20.4917
0.578125 	-0.953125 	0.5 	-20.6618
0.59375 	-0.953125 	0.5 	-20.8111
0.609375 	-0.953125 	0.5 	-21.0716
0.625 	-0.953125 	0.5 	-21.15
0.640625 	-0.953125 	0.5 	-21.3685
0.65625 	-0.953125 	0.5 	-21.5352
0.671875 	-0.953125 	0.5 	-21.7318
0.6875 	-0.953125 	0.5 	-21.9949
0.703125 	-0.953125 	0.5 	-22.1675
0.71875 	-0.953125 	0.5 	-22.4796
0.734375 	-0.953125 	0.5 	-22.7895
0.75 	-0.953125 	0.5 	-23.1671
0.765625 	-0.953125 	0.5 	-23.3925
0.78125 	-0.953125 	0.5 	-23.6055
0.796875 	-0.953125 	0.5 	-23.7986
0.8125 	-0.953125 	0.5 	-24.0533
0.828125 	-0.953125 	0.5 	-24.2027
0.84375 	-0.953125 	0.5 	-24.4739
0.859375 	-0.953125 	0.5 	-24.8564
0.875 	-0.953125 	0.5 	-25.1872
0.890625 	-0.953125 	0.5 	-25.4377
0.90625 	-0.953125 	0.5 	-25.8162
0.921875 	-0.953125 	0.5 	-26.2193
0.9375 	-0.953125 	0.5 	-26.54
0.953125 	-0.953125 	0.5 	-26.8193
0.96875 	-0.953125 	0.5 	-27.0697
0.984375 	-0.953125 	0.5 	-27.4138
1 	-0.953125 	0.5 	-27.8627
1.01562 	-0.953125 	0.5 	-28.1643
1.03125 	-0.953125 	0.5 	-28.5543
1.04688 	-0.953125 	0.5 	-28.8789
1.0625 	-0.953125 	0.5 	-29.2132
1.07812 	-0.953125 	0.5 	-29.4306
1.09375 	-0.953125 	0.5 	-29.8305
1.10938 	-0.953125 	0.5 	-30.294
1.125 	-0.953125 	0.5 	-30.6457
1.14062 	-0.953125 	0.5 	-30.9999
1.15625 	-0.953125 	0.5 	-31.3568
1.17188 	-0.953125 	0.5 	-31.728
1.1875 	-0.953125 	0.5 	-32.1986
1.20312 	-0.953125 	0.5 	-32.5999
1.21875 	-0.953125 	0.5 	-32.8671
1.23438 	-0.953125 	0.5 	-33.1812
1.25 	-0.953125 	0.5 	-33.3724
1.26562 	-0.953125 	0.5 	-33.8164
1.28125 	-0.953125 	0.5 	-34.2125
1.29688 	-0.953125 	0.5 	-34.5336
1.3125 	-0.953125 	0.5 	-34.9638
1.32812 	-0.953125 	0.5 	-35.3929
1.34375 	-0.953125 	0.5 	-35.8254
1.35938 	-0.953125 	0.5 	-36.1163
1.375 	-0.953125 	0.5 	-36.46
1.39062 	-0.953125 	0.5 	-36.7851
1.40625 	-0.953125 	0.5 	-37.0829
1.42188 	-0.953125 	0.5 	-37.4186
1.4375 	-0.953125 	0.5 	-37.7743
1.45312 	-0.953125 	0.5 	-38.1333
1.46875 	-0.953125 	0.5 	-38.4922
1.48438 	-0.953125 	0.5 	-38.8753
-0.5 	-0.9375 	0.5 	-31.6382
-0.484375 	-0.9375 	0.5 	-31.0229
-0.46875 	-0.9375 	0.5 	-30.6852
-0.453125 	-0.9375 	0.5 	-30.3156
-0.4375 	-0.9375 	0.5 	-30.157
-0.421875 	-0.9375 	0.5 	-29.8428
-0.40625 	-0.9375 	0.5 	-29.4422
-0.390625 	-0.9375 	0.5 	-29.0424
-0.375 	-0.9375 	0.5 	-28.7481
-0.359375 	-0.9375 	0.5 	-28.4431
-0.34375 	-0.9375 	0.5 	-28.0793
-0.328125 	-0.9375 	0.5 	-27.8432
-0.3125 	-0.9375 	0.5 	-27.4782
-0.296875 	-0.9375 	0.5 	-27.072
-0.28125 	-0.9375 	0.5 	-26.708
-0.265625 	-0.9375 	0.5 	-26.4645
-0.25 	-0.9375 	0.5 	-26.2165
-0.234375 	-0.9375 	0.5 	-25.6802
-0.21875 	-0.9375 	0.5 	-25.2602
-0.203125 	-0.9375 	0.5 	-25.1352
-0.1875 	-0.9375 	0.5 	-24.5202
-0.171875 	-0.9375 	0.5 	-24.3952
-0.15625 	-0.9375 	0.5 	-24.1972
-0.140625 	-0.9375 	0.5 	-23.8864
-0.125 	-0.9375 	0.5 	-23.7612
-0.109375 	-0.9375 	0.5 	-23.4162
-0.09375 	-0.9375 	0.5 	-23.0899
-0.078125 	-0.9375 	0.5 	-23.0696
-0.0625 	-0.9375 	0.5 	-22.5898
-0.046875 	-0.9375 	0.5 	-22.4115
-0.03125 	-0.9375 	0.5 	-22.194
-0.015625 	-0.9375 	0.5 	-21.9293
0 	-0.9375 	0.5 	-21.6766
0.015625 	-0.9375 	0.5 	-21.4717
0.03125 	-0.9375 	0.5 	-21.1558
0.046875 	-0.9375 	0.5 	-20.9964
0.0625 	-0.9375 	0.5 	-20.8547
0.078125 	-0.9375 	0.5 	-20.7227
0.09375 	-0.9375 	0.5 	-20.5333
0.109375 	-0.9375 	0.5 	-20.3811
0.125 	-0.9375 	0.5 	-20.3196
0.140625 	-0.9375 	0.5 	-20.0232
0.15625 	-0.9375 	0.5 	-19.8476
0.171875 	-0.9375 	0.5 	-19.6473
0.1875 	-0.9375 	0.5 	-19.5807
0.203125 	-0.9375 	0.5 	-19.5245
0.21875 	-0.9375 	0.5 	-19.4882
0.234375 	-0.9375 	0.5 	-19.3769
0.25 	-0.9375 	0.5 	-19.2706
0.265625 	-0.9375 	0.5 	-19.1665
0.28125 	-0.9375 	0.5 	-19.0962
0.296875 	-0.9375 	0.5 	-19.0476
0.3125 	-0.9375 	0.5 	-19.0824
0.328125 	-0.9375 	0.5 	-19.0866
0.34375 	-0.9375 	0.5 	-19.0141
0.359375 	-0.9375 	0.5 	-18.9081
0.375 	-0.9375 	0.5 	-18.9538
0.390625 	-0.9375 	0.5 	-19.0613
0.40625 	-0.9375 	0.5 	-19.0796
0.421875 	-0.9375 	0.5 	-19.1193
0.4375 	-0.9375 	0.5 	-19.1954
0.453125 	-0.9375 	0.5 	-19.2653
0.46875 	-0.9375 	0.5 	-19.3982
0.484375 	-0.9375 	0.5 	-19.4641
0.5 	-0.9375 	0.5 	-19.5355
0.515625 	-0.9375 	0.5 	-19.7462
0.53125 	-0.9375 	0.5 	-19.9134
0.546875 	-0.9375 	0.5 	-19.9693
0.5625 	-0.9375 	0.5 	-20.0758
0.578125 	-0.9375 	0.5 	-20.2356
0.59375 	-0.9375 	0.5 	-20.396
0.609375 	-0.9375 	0.5 	-20.5404
0.625 	-0.9375 	0.5 	-20.6852
0.640625 	-0.9375 	0.5 	-20.9191
0.65625 	-0.9375 	0.5 	-21.1154
0.671875 	-0.9375 	0.5 	-21.2878
0.6875 	-0.9375 	0.5 	-21.5341
0.703125 	-0.9375 	0.5 	-21.7929
0.71875 	-0.9375 	0.5 	-22.1829
0.734375 	-0.9375 	0.5 	-22.3828
0.75 	-0.9375 	0.5 	-22.7466
0.765625 	-0.9375 	0.5 	-23.1084
0.78125 	-0.9375 	0.5 	-23.3172
0.796875 	-0.9375 	0.5 	-23.4861
0.8125 	-0.9375 	0.5 	-23.7216
0.828125 	-0.9375 	0.5 	-23.9929
0.84375 	-0.9375 	0.5 	-24.2641
0.859375 	-0.9375 	0.5 	-24.5353
0.875 	-0.9375 	0.5 	-24.8494
0.890625 	-0.9375 	0.5 	-25.2045
0.90625 	-0.9375 	0.5 	-25.5595
0.921875 	-0.9375 	0.5 	-25.9146
0.9375 	-0.9375 	0.5 	-26.2133
0.953125 	-0.9375 	0.5 	-26.4887
0.96875 	-0.9375 	0.5 	-26.756
0.984375 	-0.9375 	0.5 	-27.1031
1 	-0.9375 	0.5 	-27.566
1.01562 	-0.9375 	0.5 	-27.9037
1.03125 	-0.9375 	0.5 	-28.3435
1.04688 	-0.9375 	0.5 	-28.6751
1.0625 	-0.9375 	0.5 	-29.0046
1.07812 	-0.9375 	0.5 	-29.3195
1.09375 	-0.9375 	0.5 	-29.6966
1.10938 	-0.9375 	0.5 	-29.9264
1.125 	-0.9375 	0.5 	-30.3758
1.14062 	-0.9375 	0.5 	-30.8508
1.15625 	-0.9375 	0.5 	-31.2117
1.17188 	-0.9375 	0.5 	-31.575
1.1875 	-0.9375 	0.5 	-32.0157
1.20312 	-0.9375 	0.5 	-32.3636
1.21875 	-0.9375 	0.5 	-32.7116
1.23438 	-0.9375 	0.5 	-33.0705
1.25 	-0.9375 	0.5 	-33.3277
1.26562 	-0.9375 	0.5 	-33.6102
1.28125 	-0.9375 	0.5 	-33.9146
1.29688 	-0.9375 	0.5 	-34.4352
1.3125 	-0.9375 	0.5 	-34.8882
1.32812 	-0.9375 	0.5 	-35.2608
1.34375 	-0.9375 	0.5 	-35.6619
1.35938 	-0.9375 	0.5 	-36.0377
1.375 	-0.9375 	0.5 	-36.3731
1.39062 	-0.9375 	0.5 	-36.6682
1.40625 	-0.9375 	0.5 	-36.9208
1.42188 	-0.9375 	0.5 	-37.3465
1.4375 	-0.9375 	0.5 	-37.7112
1.45312 	-0.9375 	0.5 	-38.0639
1.46875 	-0.9375 	0.5 	-38.4515
1.48438 	-0.9375 	0.5 	-38.8809
-0.5 	-0.921875 	0.5 	-31.4239
-0.484375 	-0.921875 	0.5 	-30.9884
-0.46875 	-0.921875 	0.5 	-30.5479
-0.453125 	-0.921875 	0.5 	-30.1717
-0.4375 	-0.921875 	0.5 	-29.9277
-0.421875 	-0.921875 	0.5 	-29.5619
-0.40625 	-0.921875 	0.5 	-29.1811
-0.390625 	-0.921875 	0.5 	-28.8292
-0.375 	-0.921875 	0.5 	-28.4099
-0.359375 	-0.921875 	0.5 	-28.1419
-0.34375 	-0.921875 	0.5 	-27.8246
-0.328125 	-0.921875 	0.5 	-27.5116
-0.3125 	-0.921875 	0.5 	-27.1567
-0.296875 	-0.921875 	0.5 	-26.785
-0.28125 	-0.921875 	0.5 	-26.522
-0.265625 	-0.921875 	0.5 	-26.2032
-0.25 	-0.921875 	0.5 	-25.9487
-0.234375 	-0.921875 	0.5 	-25.5237
-0.21875 	-0.921875 	0.5 	-25.0532
-0.203125 	-0.921875 	0.5 	-24.7502
-0.1875 	-0.921875 	0.5 	-24.3223
-0.171875 	-0.921875 	0.5 	-24.1048
-0.15625 	-0.921875 	0.5 	-23.8443
-0.140625 	-0.921875 	0.5 	-23.6633
-0.125 	-0.921875 	0.5 	-23.5316
-0.109375 	-0.921875 	0.5 	-23.0988
-0.09375 	-0.921875 	0.5 	-23.0163
-0.078125 	-0.921875 	0.5 	-22.5509
-0.0625 	-0.921875 	0.5 	-22.2745
-0.046875 	-0.921875 	0.5 	-21.9901
-0.03125 	-0.921875 	0.5 	-21.7175
-0.015625 	-0.921875 	0.5 	-21.5029
0 	-0.921875 	0.5 	-21.1642
0.015625 	-0.921875 	0.5 	-20.8915
0.03125 	-0.921875 	0.5 	-20.7288
0.046875 	-0.921875 	0.5 	-20.563
0.0625 	-0.921875 	0.5 	-20.421
0.078125 	-0.921875 	0.5 	-20.1665
0.09375 	-0.921875 	0.5 	-20.0344
0.109375 	-0.921875 	0.5 	-19.8682
0.125 	-0.921875 	0.5 	-19.7025
0.140625 	-0.921875 	0.5 	-19.5549
0.15625 	-0.921875 	0.5 	-19.3713
0.171875 	-0.921875 	0.5 	-19.1829
0.1875 	-0.921875 	0.5 	-19.1222
0.203125 	-0.921875 	0.5 	-19.0814
0.21875 	-0.921875 	0.5 	-18.9268
0.234375 	-0.921875 	0.5 	-18.9628
0.25 	-0.921875 	0.5 	-18.9189
0.265625 	-0.921875 	0.5 	-18.7457
0.28125 	-0.921875 	0.5 	-18.5684
0.296875 	-0.921875 	0.5 	-18.7457
0.3125 	-0.921875 	0.5 	-18.6415
0.328125 	-0.921875 	0.5 	-18.5599
0.34375 	-0.921875 	0.5 	-18.5042
0.359375 	-0.921875 	0.5 	-18.3964
0.375 	-0.921875 	0.5 	-18.4894
0.390625 	-0.921875 	0.5 	-18.5736
0.40625 	-0.921875 	0.5 	-18.679
0.421875 	-0.921875 	0.5 	-18.6409
0.4375 	-0.921875 	0.5 	-18.7043
0.453125 	-0.921875 	0.5 	-18.7764
0.46875 	-0.921875 	0.5 	-18.8594
0.484375 	-0.921875 	0.5 	-18.9738
0.5 	-0.921875 	0.5 	-19.0428
0.515625 	-0.921875 	0.5 	-19.374
0.53125 	-0.921875 	0.5 	-19.4383
0.546875 	-0.921875 	0.5 	-19.4241
0.5625 	-0.921875 	0.5 	-19.5555
0.578125 	-0.921875 	0.5 	-19.7979
0.59375 	-0.921875 	0.5 	-19.9044
0.609375 	-0.921875 	0.5 	-20.1064
0.625 	-0.921875 	0.5 	-20.2941
0.640625 	-0.921875 	0.5 	-20.4768
0.65625 	-0.921875 	0.5 	-20.6935
0.671875 	-0.921875 	0.5 	-20.9196
0.6875 	-0.921875 	0.5 	-21.1449
0.703125 	-0.921875 	0.5 	-21.2632
0.71875 	-0.921875 	0.5 	-21.6421
0.734375 	-0.921875 	0.5 	-21.9566
0.75 	-0.921875 	0.5 	-22.2647
0.765625 	-0.921875 	0.5 	-22.4735
0.78125 	-0.921875 	0.5 	-22.8102
0.796875 	-0.921875 	0.5 	-23.0812
0.8125 	-0.921875 	0.5 	-23.353
0.828125 	-0.921875 	0.5 	-23.5543
0.84375 	-0.921875 	0.5 	-23.8194
0.859375 	-0.921875 	0.5 	-24.1521
0.875 	-0.921875 	0.5 	-24.4916
0.890625 	-0.921875 	0.5 	-24.8371
0.90625 	-0.921875 	0.5 	-25.2012
0.921875 	-0.921875 	0.5 	-25.5604
0.9375 	-0.921875 	0.5 	-25.9103
0.953125 	-0.921875 	0.5 	-26.1939
0.96875 	-0.921875 	0.5 	-26.453
0.984375 	-0.921875 	0.5 	-26.796
1 	-0.921875 	0.5 	-27.2244
1.01562 	-0.921875 	0.5 	-27.641
1.03125 	-0.921875 	0.5 	-28.0212
1.04688 	-0.921875 	0.5 	-28.4013
1.0625 	-0.921875 	0.5 	-28.7931
1.07812 	-0.921875 	0.5 	-29.0489
1.09375 	-0.921875 	0.5 	-29.2609
1.10938 	-0.921875 	0.5 	-29.6157
1.125 	-0.921875 	0.5 	-30.1227
1.14062 	-0.921875 	0.5 	-30.483
1.15625 	-0.921875 	0.5 	-30.9518
1.17188 	-0.921875 	0.5 	-31.4153
1.1875 	-0.921875 	0.5 	-31.8181
1.20312 	-0.921875 	0.5 	-32.2075
1.21875 	-0.921875 	0.5 	-32.597
1.23438 	-0.921875 	0.5 	-32.8681
1.25 	-0.921875 	0.5 	-33.2434
1.26562 	-0.921875 	0.5 	-33.5783
1.28125 	-0.921875 	0.5 	-33.8163
1.29688 	-0.921875 	0.5 	-34.3321
1.3125 	-0.921875 	0.5 	-34.7786
1.32812 	-0.921875 	0.5 	-35.1774
1.34375 	-0.921875 	0.5 	-35.5578
1.35938 	-0.921875 	0.5 	-35.9309
1.375 	-0.921875 	0.5 	-36.2456
1.39062 	-0.921875 	0.5 	-36.5183
1.40625 	-0.921875 	0.5 	-36.839
1.42188 	-0.921875 	0.5 	-37.2319
1.4375 	-0.921875 	0.5 	-37.674
1.45312 	-0.921875 	0.5 	-38.0344
1.46875 	-0.921875 	0.5 	-38.4649
1.48438 	-0.921875 	0.5 	-38.8866
-0.5 	-0.90625 	0.5 	-31.1881
-0.484375 	-0.90625 	0.5 	-30.8167
-0.46875 	-0.90625 	0.5 	-30.4609
-0.453125 	-0.90625 	0.5 	-30.0916
-0.4375 	-0.90625 	0.5 	-29.7268
-0.421875 	-0.90625 	0.5 	-29.3262
-0.40625 	-0.90625 	0.5 	-28.9371
-0.390625 	-0.90625 	0.5 	-28.6161
-0.375 	-0.90625 	0.5 	-28.1089
-0.359375 	-0.90625 	0.5 	-27.8825
-0.34375 	-0.90625 	0.5 	-27.5796
-0.328125 	-0.90625 	0.5 	-27.0953
-0.3125 	-0.90625 	0.5 	-26.7177
-0.296875 	-0.90625 	0.5 	-26.5259
-0.28125 	-0.90625 	0.5 	-26.1431
-0.265625 	-0.90625 	0.5 	-26.0783
-0.25 	-0.90625 	0.5 	-25.6548
-0.234375 	-0.90625 	0.5 	-25.2099
-0.21875 	-0.90625 	0.5 	-24.8462
-0.203125 	-0.90625 	0.5 	-24.515
-0.1875 	-0.90625 	0.5 	-24.1653
-0.171875 	-0.90625 	0.5 	-23.7794
-0.15625 	-0.90625 	0.5 	-23.5441
-0.140625 	-0.90625 	0.5 	-23.3637
-0.125 	-0.90625 	0.5 	-23.0727
-0.109375 	-0.90625 	0.5 	-22.791
-0.09375 	-0.90625 	0.5 	-22.5268
-0.078125 	-0.90625 	0.5 	-22.2027
-0.0625 	-0.90625 	0.5 	-21.8736
-0.046875 	-0.90625 	0.5 	-21.6316
-0.03125 	-0.90625 	0.5 	-21.3713
-0.015625 	-0.90625 	0.5 	-21.1028
0 	-0.90625 	0.5 	-20.7877
0.015625 	-0.90625 	0.5 	-20.5506
0.03125 	-0.90625 	0.5 	-20.3079
0.046875 	-0.90625 	0.5 	-20.1085
0.0625 	-0.90625 	0.5 	-19.9745
0.078125 	-0.90625 	0.5 	-19.5684
0.09375 	-0.90625 	0.5 	-19.4715
0.109375 	-0.90625 	0.5 	-19.4128
0.125 	-0.90625 	0.5 	-19.2915
0.140625 	-0.90625 	0.5 	-19.098
0.15625 	-0.90625 	0.5 	-18.7166
0.171875 	-0.90625 	0.5 	-18.7743
0.1875 	-0.90625 	0.5 	-18.6968
0.203125 	-0.90625 	0.5 	-18.4507
0.21875 	-0.90625 	0.5 	-18.3877
0.234375 	-0.90625 	0.5 	-18.5789
0.25 	-0.90625 	0.5 	-18.4441
0.265625 	-0.90625 	0.5 	-18.3211
0.28125 	-0.90625 	0.5 	-18.1745
0.296875 	-0.90625 	0.5 	-18.1885
0.3125 	-0.90625 	0.5 	-18.022
0.328125 	-0.90625 	0.5 	-17.9412
0.34375 	-0.90625 	0.5 	-17.9818
0.359375 	-0.90625 	0.5 	-17.9652
0.375 	-0.90625 	0.5 	-18.0088
0.390625 	-0.90625 	0.5 	-18.0871
0.40625 	-0.90625 	0.5 	-18.1819
0.421875 	-0.90625 	0.5 	-18.0818
0.4375 	-0.90625 	0.5 	-18.1191
0.453125 	-0.90625 	0.5 	-18.17
0.46875 	-0.90625 	0.5 	-18.1933
0.484375 	-0.90625 	0.5 	-18.3375
0.5 	-0.90625 	0.5 	-18.5802
0.515625 	-0.90625 	0.5 	-18.8255
0.53125 	-0.90625 	0.5 	-18.8307
0.546875 	-0.90625 	0.5 	-18.9545
0.5625 	-0.90625 	0.5 	-19.0911
0.578125 	-0.90625 	0.5 	-19.2475
0.59375 	-0.90625 	0.5 	-19.4461
0.609375 	-0.90625 	0.5 	-19.6607
0.625 	-0.90625 	0.5 	-19.824
0.640625 	-0.90625 	0.5 	-20.0014
0.65625 	-0.90625 	0.5 	-20.2113
0.671875 	-0.90625 	0.5 	-20.4965
0.6875 	-0.90625 	0.5 	-20.7153
0.703125 	-0.90625 	0.5 	-20.6989
0.71875 	-0.90625 	0.5 	-21.0535
0.734375 	-0.90625 	0.5 	-21.4335
0.75 	-0.90625 	0.5 	-21.7886
0.765625 	-0.90625 	0.5 	-22.1484
0.78125 	-0.90625 	0.5 	-22.4596
0.796875 	-0.90625 	0.5 	-22.683
0.8125 	-0.90625 	0.5 	-22.9728
0.828125 	-0.90625 	0.5 	-23.218
0.84375 	-0.90625 	0.5 	-23.4656
0.859375 	-0.90625 	0.5 	-23.8073
0.875 	-0.90625 	0.5 	-24.1488
0.890625 	-0.90625 	0.5 	-24.4826
0.90625 	-0.90625 	0.5 	-24.8467
0.921875 	-0.90625 	0.5 	-25.1839
0.9375 	-0.90625 	0.5 	-25.5572
0.953125 	-0.90625 	0.5 	-25.8818
0.96875 	-0.90625 	0.5 	-26.1608
0.984375 	-0.90625 	0.5 	-26.5567
1 	-0.90625 	0.5 	-26.9374
1.01562 	-0.90625 	0.5 	-27.3576
1.03125 	-0.90625 	0.5 	-27.7911
1.04688 	-0.90625 	0.5 	-28.1872
1.0625 	-0.90625 	0.5 	-28.5602
1.07812 	-0.90625 	0.5 	-28.9601
1.09375 	-0.90625 	0.5 	-29.2752
1.10938 	-0.90625 	0.5 	-29.5583
1.125 	-0.90625 	0.5 	-29.8725
1.14062 	-0.90625 	0.5 	-30.3238
1.15625 	-0.90625 	0.5 	-30.7673
1.17188 	-0.90625 	0.5 	-31.2305
1.1875 	-0.90625 	0.5 	-31.6187
1.20312 	-0.90625 	0.5 	-32.0101
1.21875 	-0.90625 	0.5 	-32.4057
1.23438 	-0.90625 	0.5 	-32.6762
1.25 	-0.90625 	0.5 	-32.9768
1.26562 	-0.90625 	0.5 	-33.4164
1.28125 	-0.90625 	0.5 	-33.852
1.29688 	-0.90625 	0.5 	-34.2225
1.3125 	-0.90625 	0.5 	-34.6211
1.32812 	-0.90625 	0.5 	-35.0237
1.34375 	-0.90625 	0.5 	-35.4567
1.35938 	-0.90625 	0.5 	-35.8347
1.375 	-0.90625 	0.5 	-36.2136
1.39062 	-0.90625 	0.5 	-36.5455
1.40625 	-0.90625 	0.5 	-36.9089
1.42188 	-0.90625 	0.5 	-37.2722
1.4375 	-0.90625 	0.5 	-37.6206
1.45312 	-0.90625 	0.5 	-38.03
1.46875 	-0.90625 	0.5 	-38.4431
1.48438 	-0.90625 	0.5 	-38.8562
-0.5 	-0.890625 	0.5 	-31.0469
-0.484375 	-0.890625 	0.5 	-30.5679
-0.46875 	-0.890625 	0.5 	-30.2638
-0.453125 	-0.890625 	0.5 	-29.8925
-0.4375 	-0.890625 	0.5 	-29.5639
-0.421875 	-0.890625 	0.5 	-29.1782
-0.40625 	-0.890625 	0.5 	-28.7473
-0.390625 	-0.890625 	0.5 	-28.3978
-0.375 	-0.890625 	0.5 	-28.0064
-0.359375 	-0.890625 	0.5 	-27.7224
-0.34375 	-0.890625 	0.5 	-27.3721
-0.328125 	-0.890625 	0.5 	-26.9456
-0.3125 	-0.890625 	0.5 	-26.5833
-0.296875 	-0.890625 	0.5 	-26.0806
-0.28125 	-0.890625 	0.5 	-25.7602
-0.265625 	-0.890625 	0.5 	-25.6524
-0.25 	-0.890625 	0.5 	-25.2686
-0.234375 	-0.890625 	0.5 	-24.8713
-0.21875 	-0.890625 	0.5 	-24.5263
-0.203125 	-0.890625 	0.5 	-24.1598
-0.1875 	-0.890625 	0.5 	-23.7708
-0.171875 	-0.890625 	0.5 	-23.391
-0.15625 	-0.890625 	0.5 	-23.239
-0.140625 	-0.890625 	0.5 	-22.9063
-0.125 	-0.890625 	0.5 	-22.7762
-0.109375 	-0.890625 	0.5 	-22.3423