-0.5 	-1 	0.5 	330.937
-0.484375 	-1 	0.5 	331.124
-0.46875 	-1 	0.5 	331.282
-0.453125 	-1 	0.5 	331.499
-0.4375 	-1 	0.5 	331.614
-0.421875 	-1 	0.5 	331.816
-0.40625 	-1 	0.5 	332.045
-0.390625 	-1 	0.5 	332.286
-0.375 	-1 	0.5 	332.507
-0.359375 	-1 	0.5 	332.717
-0.34375 	-1 	0.5 	332.933
-0.328125 	-1 	0.5 	333.027
-0.3125 	-1 	0.5 	333.206
-0.296875 	-1 	0.5 	333.358
-0.28125 	-1 	0.5 	333.44
-0.265625 	-1 	0.5 	333.613
-0.25 	-1 	0.5 	333.738
-0.234375 	-1 	0.5 	333.927
-0.21875 	-1 	0.5 	334.062
-0.203125 	-1 	0.5 	334.216
-0.1875 	-1 	0.5 	334.337
-0.171875 	-1 	0.5 	334.473
-0.15625 	-1 	0.5 	334.524
-0.140625 	-1 	0.5 	334.594
-0.125 	-1 	0.5 	334.644
-0.109375 	-1 	0.5 	334.747
-0.09375 	-1 	0.5 	334.857
-0.078125 	-1 	0.5 	334.936
-0.0625 	-1 	0.5 	334.94
-0.046875 	-1 	0.5 	334.93
-0.03125 	-1 	0.5 	334.999
-0.015625 	-1 	0.5 	335.046
0 	-1 	0.5 	335.129
0.015625 	-1 	0.5 	335.152
0.03125 	-1 	0.5 	335.119
0.046875 	-1 	0.5 	335.135
0.0625 	-1 	0.5 	335.145
0.078125 	-1 	0.5 	335.158
0.09375 	-1 	0.5 	335.169
0.109375 	-1 	0.5 	335.175
0.125 	-1 	0.5 	335.177
0.140625 	-1 	0.5 	335.187
0.15625 	-1 	0.5 	335.195
0.171875 	-1 	0.5 	335.171
0.1875 	-1 	0.5 	335.149
0.203125 	-1 	0.5 	335.127
0.21875 	-1 	0.5 	335.075
0.234375 	-1 	0.5 	335.016
0.25 	-1 	0.5 	335
0.265625 	-1 	0.5 	335.004
0.28125 	-1 	0.5 	334.991
0.296875 	-1 	0.5 	334.966
0.3125 	-1 	0.5 	334.936
0.328125 	-1 	0.5 	334.916
0.34375 	-1 	0.5 	334.932
0.359375 	-1 	0.5 	334.854
0.375 	-1 	0.5 	334.815
0.390625 	-1 	0.5 	334.76
0.40625 	-1 	0.5 	334.701
0.421875 	-1 	0.5 	334.67
0.4375 	-1 	0.5 	334.6
0.453125 	-1 	0.5 	334.658
0.46875 	-1 	0.5 	334.64
0.484375 	-1 	0.5 	334.593
0.5 	-1 	0.5 	334.515
0.515625 	-1 	0.5 	334.458
0.53125 	-1 	0.5 	334.377
0.546875 	-1 	0.5 	334.362
0.5625 	-1 	0.5 	334.363
0.578125 	-1 	0.5 	334.324
0.59375 	-1 	0.5 	334.266
0.609375 	-1 	0.5 	334.254
0.625 	-1 	0.5 	334.192
0.640625 	-1 	0.5 	334.129
0.65625 	-1 	0.5 	333.998
0.671875 	-1 	0.5 	333.973
0.6875 	-1 	0.5 	333.938
0.703125 	-1 	0.5 	333.874
0.71875 	-1 	0.5 	333.795
0.734375 	-1 	0.5 	333.719
0.75 	-1 	0.5 	333.638
0.765625 	-1 	0.5 	333.55
0.78125 	-1 	0.5 	333.461
0.796875 	-1 	0.5 	333.371
0.8125 	-1 	0.5 	333.287
0.828125 	-1 	0.5 	333.203
0.84375 	-1 	0.5 	333.092
0.859375 	-1 	0.5 	333.014
0.875 	-1 	0.5 	332.854
0.890625 	-1 	0.5 	332.674
0.90625 	-1 	0.5 	332.587
0.921875 	-1 	0.5 	332.491
0.9375 	-1 	0.5 	332.358
0.953125 	-1 	0.5 	332.233
0.96875 	-1 	0.5 	332.126
0.984375 	-1 	0.5 	331.947
1 	-1 	0.5 	331.764
1.01562 	-1 	0.5 	331.571
1.03125 	-1 	0.5 	331.396
1.04688 	-1 	0.5 	331.18
1.0625 	-1 	0.5 	331
1.07812 	-1 	0.5 	330.852
1.09375 	-1 	0.5 	330.663
1.10938 	-1 	0.5 	330.462
1.125 	-1 	0.5 	330.264
1.14062 	-1 	0.5 	330.069
1.15625 	-1 	0.5 	329.891
1.17188 	-1 	0.5 	329.652
1.1875 	-1 	0.5 	329.451
1.20312 	-1 	0.5 	329.254
1.21875 	-1 	0.5 	328.974
1.23438 	-1 	0.5 	328.725
1.25 	-1 	0.5 	328.479
1.26562 	-1 	0.5 	328.234
1.28125 	-1 	0.5 	327.989
1.29688 	-1 	0.5 	327.75
1.3125 	-1 	0.5 	327.513
1.32812 	-1 	0.5 	327.271
1.34375 	-1 	0.5 	327.028
1.35938 	-1 	0.5 	326.758
1.375 	-1 	0.5 	326.473
1.39062 	-1 	0.5 	326.205
1.40625 	-1 	0.5 	325.952
1.42188 	-1 	0.5 	325.662
1.4375 	-1 	0.5 	325.325
1.45312 	-1 	0.5 	325.082
1.46875 	-1 	0.5 	324.817
1.48438 	-1 	0.5 	324.582
-0.5 	-0.984375 	0.5 	331.111
-0.484375 	-0.984375 	0.5 	331.334
-0.46875 	-0.984375 	0.5 	331.556
-0.453125 	-0.984375 	0.5 	331.764
-0.4375 	-0.984375 	0.5 	331.946
-0.421875 	-0.984375 	0.5 	332.128
-0.40625 	-0.984375 	0.5 	332.31
-0.390625 	-0.984375 	0.5 	332.572
-0.375 	-0.984375 	0.5 	332.832
-0.359375 	-0.984375 	0.5 	333.019
-0.34375 	-0.984375 	0.5 	333.216
-0.328125 	-0.984375 	0.5 	333.39
-0.3125 	-0.984375 	0.5 	333.54
-0.296875 	-0.984375 	0.5 	333.696
-0.28125 	-0.984375 	0.5 	333.753
-0.265625 	-0.984375 	0.5 	333.912
-0.25 	-0.984375 	0.5 	334.067
-0.234375 	-0.984375 	0.5 	334.23
-0.21875 	-0.984375 	0.5 	334.305
-0.203125 	-0.984375 	0.5 	334.522
-0.1875 	-0.984375 	0.5 	334.647
-0.171875 	-0.984375 	0.5 	334.831
-0.15625 	-0.984375 	0.5 	334.878
-0.140625 	-0.984375 	0.5 	334.898
-0.125 	-0.984375 	0.5 	334.975
-0.109375 	-0.984375 	0.5 	335.078
-0.09375 	-0.984375 	0.5 	335.19
-0.078125 	-0.984375 	0.5 	335.185
-0.0625 	-0.984375 	0.5 	335.158
-0.046875 	-0.984375 	0.5 	335.208
-0.03125 	-0.984375 	0.5 	335.325
-0.015625 	-0.984375 	0.5 	335.397
0 	-0.984375 	0.5 	335.423
0.015625 	-0.984375 	0.5 	335.447
0.03125 	-0.984375 	0.5 	335.426
0.046875 	-0.984375 	0.5 	335.428
0.0625 	-0.984375 	0.5 	335.455
0.078125 	-0.984375 	0.5 	335.458
0.09375 	-0.984375 	0.5 	335.471
0.109375 	-0.984375 	0.5 	335.475
0.125 	-0.984375 	0.5 	335.481
0.140625 	-0.984375 	0.5 	335.472
0.15625 	-0.984375 	0.5 	335.463
0.171875 	-0.984375 	0.5 	335.434
0.1875 	-0.984375 	0.5 	335.409
0.203125 	-0.984375 	0.5 	335.402
0.21875 	-0.984375 	0.5 	335.346
0.234375 	-0.984375 	0.5 	335.307
0.25 	-0.984375 	0.5 	335.244
0.265625 	-0.984375 	0.5 	335.227
0.28125 	-0.984375 	0.5 	335.21
0.296875 	-0.984375 	0.5 	335.193
0.3125 	-0.984375 	0.5 	335.173
0.328125 	-0.984375 	0.5 	335.145
0.34375 	-0.984375 	0.5 	335.143
0.359375 	-0.984375 	0.5 	335.088
0.375 	-0.984375 	0.5 	335.035
0.390625 	-0.984375 	0.5 	335.056
0.40625 	-0.984375 	0.5 	334.933
0.421875 	-0.984375 	0.5 	334.851
0.4375 	-0.984375 	0.5 	334.892
0.453125 	-0.984375 	0.5 	334.901
0.46875 	-0.984375 	0.5 	334.911
0.484375 	-0.984375 	0.5 	334.828
0.5 	-0.984375 	0.5 	334.719
0.515625 	-0.984375 	0.5 	334.678
0.53125 	-0.984375 	0.5 	334.624
0.546875 	-0.984375 	0.5 	334.619
0.5625 	-0.984375 	0.5 	334.61
0.578125 	-0.984375 	0.5 	334.556
0.59375 	-0.984375 	0.5 	334.518
0.609375 	-0.984375 	0.5 	334.489
0.625 	-0.984375 	0.5 	334.441
0.640625 	-0.984375 	0.5 	334.322
0.65625 	-0.984375 	0.5 	334.284
0.671875 	-0.984375 	0.5 	334.205
0.6875 	-0.984375 	0.5 	334.167
0.703125 	-0.984375 	0.5 	334.147
0.71875 	-0.984375 	0.5 	334.075
0.734375 	-0.984375 	0.5 	333.988
0.75 	-0.984375 	0.5 	333.915
0.765625 	-0.984375 	0.5 	333.829
0.78125 	-0.984375 	0.5 	333.738
0.796875 	-0.984375 	0.5 	333.632
0.8125 	-0.984375 	0.5 	333.557
0.828125 	-0.984375 	0.5 	333.454
0.84375 	-0.984375 	0.5 	333.354
0.859375 	-0.984375 	0.5 	333.215
0.875 	-0.984375 	0.5 	333.088
0.890625 	-0.984375 	0.5 	332.975
0.90625 	-0.984375 	0.5 	332.871
0.921875 	-0.984375 	0.5 	332.775
0.9375 	-0.984375 	0.5 	332.637
0.953125 	-0.984375 	0.5 	332.499
0.96875 	-0.984375 	0.5 	332.381
0.984375 	-0.984375 	0.5 	332.179
1 	-0.984375 	0.5 	332.014
1.01562 	-0.984375 	0.5 	331.826
1.03125 	-0.984375 	0.5 	331.637
1.04688 	-0.984375 	0.5 	331.441
1.0625 	-0.984375 	0.5 	331.272
1.07812 	-0.984375 	0.5 	331.123
1.09375 	-0.984375 	0.5 	330.909
1.10938 	-0.984375 	0.5 	330.713
1.125 	-0.984375 	0.5 	330.515
1.14062 	-0.984375 	0.5 	330.311
1.15625 	-0.984375 	0.5 	330.083
1.17188 	-0.984375 	0.5 	329.897
1.1875 	-0.984375 	0.5 	329.711
1.20312 	-0.984375 	0.5 	329.469
1.21875 	-0.984375 	0.5 	329.173
1.23438 	-0.984375 	0.5 	328.906
1.25 	-0.984375 	0.5 	328.665
1.26562 	-0.984375 	0.5 	328.419
1.28125 	-0.984375 	0.5 	328.197
1.29688 	-0.984375 	0.5 	327.947
1.3125 	-0.984375 	0.5 	327.691
1.32812 	-0.984375 	0.5 	327.464
1.34375 	-0.984375 	0.5 	327.184
1.35938 	-0.984375 	0.5 	326.928
1.375 	-0.984375 	0.5 	326.629
1.39062 	-0.984375 	0.5 	326.333
1.40625 	-0.984375 	0.5 	326.047
1.42188 	-0.984375 	0.5 	325.76
1.4375 	-0.984375 	0.5 	325.474
1.45312 	-0.984375 	0.5 	325.208
1.46875 	-0.984375 	0.5 	324.968
1.48438 	-0.984375 	0.5 	324.723
-0.5 	-0.96875 	0.5 	331.201
-0.484375 	-0.96875 	0.5 	331.56
-0.46875 	-0.96875 	0.5 	331.844
-0.453125 	-0.96875 	0.5 	332.059
-0.4375 	-0.96875 	0.5 	332.22
-0.421875 	-0.96875 	0.5 	332.338
-0.40625 	-0.96875 	0.5 	332.644
-0.390625 	-0.96875 	0.5 	332.838
-0.375 	-0.96875 	0.5 	333.142
-0.359375 	-0.96875 	0.5 	333.429
-0.34375 	-0.96875 	0.5 	333.534
-0.328125 	-0.96875 	0.5 	333.686
-0.3125 	-0.96875 	0.5 	333.751
-0.296875 	-0.96875 	0.5 	333.983
-0.28125 	-0.96875 	0.5 	334.175
-0.265625 	-0.96875 	0.5 	334.292
-0.25 	-0.96875 	0.5 	334.409
-0.234375 	-0.96875 	0.5 	334.518
-0.21875 	-0.96875 	0.5 	334.624
-0.203125 	-0.96875 	0.5 	334.793
-0.1875 	-0.96875 	0.5 	334.953
-0.171875 	-0.96875 	0.5 	335.143
-0.15625 	-0.96875 	0.5 	335.127
-0.140625 	-0.96875 	0.5 	335.213
-0.125 	-0.96875 	0.5 	335.427
-0.109375 	-0.96875 	0.5 	335.477
-0.09375 	-0.96875 	0.5 	335.528
-0.078125 	-0.96875 	0.5 	335.427
-0.0625 	-0.96875 	0.5 	335.522
-0.046875 	-0.96875 	0.5 	335.571
-0.03125 	-0.96875 	0.5 	335.644
-0.015625 	-0.96875 	0.5 	335.691
0 	-0.96875 	0.5 	335.744
0.015625 	-0.96875 	0.5 	335.702
0.03125 	-0.96875 	0.5 	335.735
0.046875 	-0.96875 	0.5 	335.749
0.0625 	-0.96875 	0.5 	335.763
0.078125 	-0.96875 	0.5 	335.766
0.09375 	-0.96875 	0.5 	335.769
0.109375 	-0.96875 	0.5 	335.769
0.125 	-0.96875 	0.5 	335.77
0.140625 	-0.96875 	0.5 	335.761
0.15625 	-0.96875 	0.5 	335.737
0.171875 	-0.96875 	0.5 	335.649
0.1875 	-0.96875 	0.5 	335.659
0.203125 	-0.96875 	0.5 	335.668
0.21875 	-0.96875 	0.5 	335.629
0.234375 	-0.96875 	0.5 	335.569
0.25 	-0.96875 	0.5 	335.48
0.265625 	-0.96875 	0.5 	335.484
0.28125 	-0.96875 	0.5 	335.457
0.296875 	-0.96875 	0.5 	335.45
0.3125 	-0.96875 	0.5 	335.4
0.328125 	-0.96875 	0.5 	335.346
0.34375 	-0.96875 	0.5 	335.316
0.359375 	-0.96875 	0.5 	335.312
0.375 	-0.96875 	0.5 	335.261
0.390625 	-0.96875 	0.5 	335.229
0.40625 	-0.96875 	0.5 	335.206
0.421875 	-0.96875 	0.5 	335.182
0.4375 	-0.96875 	0.5 	335.148
0.453125 	-0.96875 	0.5 	335.089
0.46875 	-0.96875 	0.5 	335.054
0.484375 	-0.96875 	0.5 	335.067
0.5 	-0.96875 	0.5 	334.994
0.515625 	-0.96875 	0.5 	334.957
0.53125 	-0.96875 	0.5 	334.944
0.546875 	-0.96875 	0.5 	334.867
0.5625 	-0.96875 	0.5 	334.822
0.578125 	-0.96875 	0.5 	334.781
0.59375 	-0.96875 	0.5 	334.767
0.609375 	-0.96875 	0.5 	334.729
0.625 	-0.96875 	0.5 	334.68
0.640625 	-0.96875 	0.5 	334.597
0.65625 	-0.96875 	0.5 	334.535
0.671875 	-0.96875 	0.5 	334.465
0.6875 	-0.96875 	0.5 	334.41
0.703125 	-0.96875 	0.5 	334.37
0.71875 	-0.96875 	0.5 	334.323
0.734375 	-0.96875 	0.5 	334.25
0.75 	-0.96875 	0.5 	334.182
0.765625 	-0.96875 	0.5 	334.104
0.78125 	-0.96875 	0.5 	333.999
0.796875 	-0.96875 	0.5 	333.892
0.8125 	-0.96875 	0.5 	333.809
0.828125 	-0.96875 	0.5 	333.722
0.84375 	-0.96875 	0.5 	333.639
0.859375 	-0.96875 	0.5 	333.498
0.875 	-0.96875 	0.5 	333.383
0.890625 	-0.96875 	0.5 	333.25
0.90625 	-0.96875 	0.5 	333.138
0.921875 	-0.96875 	0.5 	333.047
0.9375 	-0.96875 	0.5 	332.917
0.953125 	-0.96875 	0.5 	332.772
0.96875 	-0.96875 	0.5 	332.609
0.984375 	-0.96875 	0.5 	332.418
1 	-0.96875 	0.5 	332.264
1.01562 	-0.96875 	0.5 	332.076
1.03125 	-0.96875 	0.5 	331.898
1.04688 	-0.96875 	0.5 	331.748
1.0625 	-0.96875 	0.5 	331.623
1.07812 	-0.96875 	0.5 	331.371
1.09375 	-0.96875 	0.5 	331.15
1.10938 	-0.96875 	0.5 	330.976
1.125 	-0.96875 	0.5 	330.773
1.14062 	-0.96875 	0.5 	330.518
1.15625 	-0.96875 	0.5 	330.304
1.17188 	-0.96875 	0.5 	330.073
1.1875 	-0.96875 	0.5 	329.889
1.20312 	-0.96875 	0.5 	329.683
1.21875 	-0.96875 	0.5 	329.373
1.23438 	-0.96875 	0.5 	329.098
1.25 	-0.96875 	0.5 	328.85
1.26562 	-0.96875 	0.5 	328.613
1.28125 	-0.96875 	0.5 	328.417
1.29688 	-0.96875 	0.5 	328.172
1.3125 	-0.96875 	0.5 	327.848
1.32812 	-0.96875 	0.5 	327.611
1.34375 	-0.96875 	0.5 	327.353
1.35938 	-0.96875 	0.5 	327.086
1.375 	-0.96875 	0.5 	326.786
1.39062 	-0.96875 	0.5 	326.49
1.40625 	-0.96875 	0.5 	326.197
1.42188 	-0.96875 	0.5 	325.896
1.4375 	-0.96875 	0.5 	325.621
1.45312 	-0.96875 	0.5 	325.351
1.46875 	-0.96875 	0.5 	325.087
1.48438 	-0.96875 	0.5 	324.809
-0.5 	-0.953125 	0.5 	331.498
-0.484375 	-0.953125 	0.5 	331.925
-0.46875 	-0.953125 	0.5 	332.061
-0.453125 	-0.953125 	0.5 	332.34
-0.4375 	-0.953125 	0.5 	332.531
-0.421875 	-0.953125 	0.5 	332.694
-0.40625 	-0.953125 	0.5 	332.915
-0.390625 	-0.953125 	0.5 	333.105
-0.375 	-0.953125 	0.5 	333.382
-0.359375 	-0.953125 	0.5 	333.693
-0.34375 	-0.953125 	0.5 	333.837
-0.328125 	-0.953125 	0.5 	334.031
-0.3125 	-0.953125 	0.5 	334.032
-0.296875 	-0.953125 	0.5 	334.299
-0.28125 	-0.953125 	0.5 	334.509
-0.265625 	-0.953125 	0.5 	334.659
-0.25 	-0.953125 	0.5 	334.79
-0.234375 	-0.953125 	0.5 	334.861
-0.21875 	-0.953125 	0.5 	334.901
-0.203125 	-0.953125 	0.5 	335.107
-0.1875 	-0.953125 	0.5 	335.26
-0.171875 	-0.953125 	0.5 	335.342
-0.15625 	-0.953125 	0.5 	335.428
-0.140625 	-0.953125 	0.5 	335.536
-0.125 	-0.953125 	0.5 	335.746
-0.109375 	-0.953125 	0.5 	335.753
-0.09375 	-0.953125 	0.5 	335.858
-0.078125 	-0.953125 	0.5 	335.793
-0.0625 	-0.953125 	0.5 	335.768
-0.046875 	-0.953125 	0.5 	335.914
-0.03125 	-0.953125 	0.5 	335.961
-0.015625 	-0.953125 	0.5 	335.991
0 	-0.953125 	0.5 	336.049
0.015625 	-0.953125 	0.5 	336.008
0.03125 	-0.953125 	0.5 	336.058
0.046875 	-0.953125 	0.5 	336.062
0.0625 	-0.953125 	0.5 	336.062
0.078125 	-0.953125 	0.5 	336.061
0.09375 	-0.953125 	0.5 	336.059
0.109375 	-0.953125 	0.5 	336.038
0.125 	-0.953125 	0.5 	336.055
0.140625 	-0.953125 	0.5 	336.02
0.15625 	-0.953125 	0.5 	336.012
0.171875 	-0.953125 	0.5 	335.931
0.1875 	-0.953125 	0.5 	335.971
0.203125 	-0.953125 	0.5 	335.921
0.21875 	-0.953125 	0.5 	335.838
0.234375 	-0.953125 	0.5 	335.817
0.25 	-0.953125 	0.5 	335.75
0.265625 	-0.953125 	0.5 	335.721
0.28125 	-0.953125 	0.5 	335.718
0.296875 	-0.953125 	0.5 	335.675
0.3125 	-0.953125 	0.5 	335.627
0.328125 	-0.953125 	0.5 	335.597
0.34375 	-0.953125 	0.5 	335.56
0.359375 	-0.953125 	0.5 	335.591
0.375 	-0.953125 	0.5 	335.51
0.390625 	-0.953125 	0.5 	335.469
0.40625 	-0.953125 	0.5 	335.449
0.421875 	-0.953125 	0.5 	335.422
0.4375 	-0.953125 	0.5 	335.337
0.453125 	-0.953125 	0.5 	335.339
0.46875 	-0.953125 	0.5 	335.277
0.484375 	-0.953125 	0.5 	335.347
0.5 	-0.953125 	0.5 	335.274
0.515625 	-0.953125 	0.5 	335.209
0.53125 	-0.953125 	0.5 	335.16
0.546875 	-0.953125 	0.5 	335.118
0.5625 	-0.953125 	0.5 	335.043
0.578125 	-0.953125 	0.5 	335.028
0.59375 	-0.953125 	0.5 	334.999
0.609375 	-0.953125 	0.5 	334.966
0.625 	-0.953125 	0.5 	334.911
0.640625 	-0.953125 	0.5 	334.875
0.65625 	-0.953125 	0.5 	334.804
0.671875 	-0.953125 	0.5 	334.726
0.6875 	-0.953125 	0.5 	334.664
0.703125 	-0.953125 	0.5 	334.628
0.71875 	-0.953125 	0.5 	334.564
0.734375 	-0.953125 	0.5 	334.517
0.75 	-0.953125 	0.5 	334.459
0.765625 	-0.953125 	0.5 	334.371
0.78125 	-0.953125 	0.5 	334.269
0.796875 	-0.953125 	0.5 	334.166
0.8125 	-0.953125 	0.5 	334.068
0.828125 	-0.953125 	0.5 	333.979
0.84375 	-0.953125 	0.5 	333.89
0.859375 	-0.953125 	0.5 	333.803
0.875 	-0.953125 	0.5 	333.673
0.890625 	-0.953125 	0.5 	333.542
0.90625 	-0.953125 	0.5 	333.409
0.921875 	-0.953125 	0.5 	333.283
0.9375 	-0.953125 	0.5 	333.153
0.953125 	-0.953125 	0.5 	333.036
0.96875 	-0.953125 	0.5 	332.886
0.984375 	-0.953125 	0.5 	332.698
1 	-0.953125 	0.5 	332.518
1.01562 	-0.953125 	0.5 	332.354
1.03125 	-0.953125 	0.5 	332.18
1.04688 	-0.953125 	0.5 	332
1.0625 	-0.953125 	0.5 	331.869
1.07812 	-0.953125 	0.5 	331.666
1.09375 	-0.953125 	0.5 	331.422
1.10938 	-0.953125 	0.5 	331.234
1.125 	-0.953125 	0.5 	330.986
1.14062 	-0.953125 	0.5 	330.748
1.15625 	-0.953125 	0.5 	330.556
1.17188 	-0.953125 	0.5 	330.296
1.1875 	-0.953125 	0.5 	330.1
1.20312 	-0.953125 	0.5 	329.9
1.21875 	-0.953125 	0.5 	329.633
1.23438 	-0.953125 	0.5 	329.356
1.25 	-0.953125 	0.5 	329.078
1.26562 	-0.953125 	0.5 	328.799
1.28125 	-0.953125 	0.5 	328.546
1.29688 	-0.953125 	0.5 	328.29
1.3125 	-0.953125 	0.5 	328.034
1.32812 	-0.953125 	0.5 	327.758
1.34375 	-0.953125 	0.5 	327.49
1.35938 	-0.953125 	0.5 	327.22
1.375 	-0.953125 	0.5 	326.943
1.39062 	-0.953125 	0.5 	326.656
1.40625 	-0.953125 	0.5 	326.375
1.42188 	-0.953125 	0.5 	326.054
1.4375 	-0.953125 	0.5 	325.755
1.45312 	-0.953125 	0.5 	325.519
1.46875 	-0.953125 	0.5 	325.193
1.48438 	-0.953125 	0.5 	324.901
-0.5 	-0.9375 	0.5 	331.697
-0.484375 	-0.9375 	0.5 	332.073
-0.46875 	-0.9375 	0.5 	332.31
-0.453125 	-0.9375 	0.5 	332.546
-0.4375 	-0.9375 	0.5 	332.748
-0.421875 	-0.9375 	0.5 	332.984
-0.40625 	-0.9375 	0.5 	333.216
-0.390625 	-0.9375 	0.5 	333.436
-0.375 	-0.9375 	0.5 	333.653
-0.359375 	-0.9375 	0.5 	333.928
-0.34375 	-0.9375 	0.5 	334.177
-0.328125 	-0.9375 	0.5 	334.314
-0.3125 	-0.9375 	0.5 	334.434
-0.296875 	-0.9375 	0.5 	334.589
-0.28125 	-0.9375 	0.5 	334.76
-0.265625 	-0.9375 	0.5 	334.985
-0.25 	-0.9375 	0.5 	335.22
-0.234375 	-0.9375 	0.5 	335.317
-0.21875 	-0.9375 	0.5 	335.377
-0.203125 	-0.9375 	0.5 	335.602
-0.1875 	-0.9375 	0.5 	335.638
-0.171875 	-0.9375 	0.5 	335.645
-0.15625 	-0.9375 	0.5 	335.765
-0.140625 	-0.9375 	0.5 	335.862
-0.125 	-0.9375 	0.5 	335.967
-0.109375 	-0.9375 	0.5 	336.082
-0.09375 	-0.9375 	0.5 	336.165
-0.078125 	-0.9375 	0.5 	336.16
-0.0625 	-0.9375 	0.5 	336.209
-0.046875 	-0.9375 	0.5 	336.229
-0.03125 	-0.9375 	0.5 	336.287
-0.015625 	-0.9375 	0.5 	336.335
0 	-0.9375 	0.5 	336.353
0.015625 	-0.9375 	0.5 	336.35
0.03125 	-0.9375 	0.5 	336.305
0.046875 	-0.9375 	0.5 	336.366
0.0625 	-0.9375 	0.5 	336.35
0.078125 	-0.9375 	0.5 	336.35
0.09375 	-0.9375 	0.5 	336.348
0.109375 	-0.9375 	0.5 	336.326
0.125 	-0.9375 	0.5 	336.308
0.140625 	-0.9375 	0.5 	336.293
0.15625 	-0.9375 	0.5 	336.274
0.171875 	-0.9375 	0.5 	336.247
0.1875 	-0.9375 	0.5 	336.222
0.203125 	-0.9375 	0.5 	336.173
0.21875 	-0.9375 	0.5 	336.116
0.234375 	-0.9375 	0.5 	336.076
0.25 	-0.9375 	0.5 	336.096
0.265625 	-0.9375 	0.5 	336.046
0.28125 	-0.9375 	0.5 	335.974
0.296875 	-0.9375 	0.5 	335.923
0.3125 	-0.9375 	0.5 	335.876
0.328125 	-0.9375 	0.5 	335.837
0.34375 	-0.9375 	0.5 	335.821
0.359375 	-0.9375 	0.5 	335.809
0.375 	-0.9375 	0.5 	335.763
0.390625 	-0.9375 	0.5 	335.717
0.40625 	-0.9375 	0.5 	335.677
0.421875 	-0.9375 	0.5 	335.672
0.4375 	-0.9375 	0.5 	335.627
0.453125 	-0.9375 	0.5 	335.557
0.46875 	-0.9375 	0.5 	335.555
0.484375 	-0.9375 	0.5 	335.526
0.5 	-0.9375 	0.5 	335.478
0.515625 	-0.9375 	0.5 	335.449
0.53125 	-0.9375 	0.5 	335.411
0.546875 	-0.9375 	0.5 	335.369
0.5625 	-0.9375 	0.5 	335.319
0.578125 	-0.9375 	0.5 	335.283
0.59375 	-0.9375 	0.5 	335.236
0.609375 	-0.9375 	0.5 	335.214
0.625 	-0.9375 	0.5 	335.141
0.640625 	-0.9375 	0.5 	335.107
0.65625 	-0.9375 	0.5 	335.086
0.671875 	-0.9375 	0.5 	334.999
0.6875 	-0.9375 	0.5 	334.916
0.703125 	-0.9375 	0.5 	334.873
0.71875 	-0.9375 	0.5 	334.843
0.734375 	-0.9375 	0.5 	334.789
0.75 	-0.9375 	0.5 	334.723
0.765625 	-0.9375 	0.5 	334.633
0.78125 	-0.9375 	0.5 	334.544
0.796875 	-0.9375 	0.5 	334.437
0.8125 	-0.9375 	0.5 	334.329
0.828125 	-0.9375 	0.5 	334.263
0.84375 	-0.9375 	0.5 	334.174
0.859375 	-0.9375 	0.5 	334.116
0.875 	-0.9375 	0.5 	333.96
0.890625 	-0.9375 	0.5 	333.831
0.90625 	-0.9375 	0.5 	333.681
0.921875 	-0.9375 	0.5 	333.511
0.9375 	-0.9375 	0.5 	333.43
0.953125 	-0.9375 	0.5 	333.309
0.96875 	-0.9375 	0.5 	333.14
0.984375 	-0.9375 	0.5 	332.967
1 	-0.9375 	0.5 	332.812
1.01562 	-0.9375 	0.5 	332.632
1.03125 	-0.9375 	0.5 	332.461
1.04688 	-0.9375 	0.5 	332.301
1.0625 	-0.9375 	0.5 	332.122
1.07812 	-0.9375 	0.5 	331.953
1.09375 	-0.9375 	0.5 	331.714
1.10938 	-0.9375 	0.5 	331.488
1.125 	-0.9375 	0.5 	331.264
1.14062 	-0.9375 	0.5 	331.029
1.15625 	-0.9375 	0.5 	330.807
1.17188 	-0.9375 	0.5 	330.586
1.1875 	-0.9375 	0.5 	330.371
1.20312 	-0.9375 	0.5 	330.13
1.21875 	-0.9375 	0.5 	329.856
1.23438 	-0.9375 	0.5 	329.599
1.25 	-0.9375 	0.5 	329.314
1.26562 	-0.9375 	0.5 	328.997
1.28125 	-0.9375 	0.5 	328.758
1.29688 	-0.9375 	0.5 	328.504
1.3125 	-0.9375 	0.5 	328.221
1.32812 	-0.9375 	0.5 	327.932
1.34375 	-0.9375 	0.5 	327.598
1.35938 	-0.9375 	0.5 	327.331
1.375 	-0.9375 	0.5 	327.145
1.39062 	-0.9375 	0.5 	326.83
1.40625 	-0.9375 	0.5 	326.52
1.42188 	-0.9375 	0.5 	326.213
1.4375 	-0.9375 	0.5 	325.941
1.45312 	-0.9375 	0.5 	325.621
1.46875 	-0.9375 	0.5 	325.301
1.48438 	-0.9375 	0.5 	325.006
-0.5 	-0.921875 	0.5 	332.003
-0.484375 	-0.921875 	0.5 	332.276
-0.46875 	-0.921875 	0.5 	332.54
-0.453125 	-0.921875 	0.5 	332.752
-0.4375 	-0.921875 	0.5 	332.968
-0.421875 	-0.921875 	0.5 	333.246
-0.40625 	-0.921875 	0.5 	333.46
-0.390625 	-0.921875 	0.5 	333.692
-0.375 	-0.921875 	0.5 	333.949
-0.359375 	-0.921875 	0.5 	334.192
-0.34375 	-0.921875 	0.5 	334.327
-0.328125 	-0.921875 	0.5 	334.461
-0.3125 	-0.921875 	0.5 	334.735
-0.296875 	-0.921875 	0.5 	335.048
-0.28125 	-0.921875 	0.5 	335.174
-0.265625 	-0.921875 	0.5 	335.3
-0.25 	-0.921875 	0.5 	335.395
-0.234375 	-0.921875 	0.5 	335.474
-0.21875 	-0.921875 	0.5 	335.754
-0.203125 	-0.921875 	0.5 	335.878
-0.1875 	-0.921875 	0.5 	336.049
-0.171875 	-0.921875 	0.5 	336.024
-0.15625 	-0.921875 	0.5 	336.055
-0.140625 	-0.921875 	0.5 	336.215
-0.125 	-0.921875 	0.5 	336.315
-0.109375 	-0.921875 	0.5 	336.412
-0.09375 	-0.921875 	0.5 	336.469
-0.078125 	-0.921875 	0.5 	336.507
-0.0625 	-0.921875 	0.5 	336.538
-0.046875 	-0.921875 	0.5 	336.57
-0.03125 	-0.921875 	0.5 	336.613
-0.015625 	-0.921875 	0.5 	336.656
0 	-0.921875 	0.5 	336.699
0.015625 	-0.921875 	0.5 	336.602
0.03125 	-0.921875 	0.5 	336.665
0.046875 	-0.921875 	0.5 	336.663
0.0625 	-0.921875 	0.5 	336.652
0.078125 	-0.921875 	0.5 	336.645
0.09375 	-0.921875 	0.5 	336.606
0.109375 	-0.921875 	0.5 	336.579
0.125 	-0.921875 	0.5 	336.571
0.140625 	-0.921875 	0.5 	336.536
0.15625 	-0.921875 	0.5 	336.517
0.171875 	-0.921875 	0.5 	336.529
0.1875 	-0.921875 	0.5 	336.424
0.203125 	-0.921875 	0.5 	336.418
0.21875 	-0.921875 	0.5 	336.382
0.234375 	-0.921875 	0.5 	336.339
0.25 	-0.921875 	0.5 	336.338
0.265625 	-0.921875 	0.5 	336.269
0.28125 	-0.921875 	0.5 	336.226
0.296875 	-0.921875 	0.5 	336.21
0.3125 	-0.921875 	0.5 	336.158
0.328125 	-0.921875 	0.5 	336.088
0.34375 	-0.921875 	0.5 	336.042
0.359375 	-0.921875 	0.5 	336.037
0.375 	-0.921875 	0.5 	335.991
0.390625 	-0.921875 	0.5 	335.942
0.40625 	-0.921875 	0.5 	335.9
0.421875 	-0.921875 	0.5 	335.926
0.4375 	-0.921875 	0.5 	335.927
0.453125 	-0.921875 	0.5 	335.823
0.46875 	-0.921875 	0.5 	335.749
0.484375 	-0.921875 	0.5 	335.75
0.5 	-0.921875 	0.5 	335.716
0.515625 	-0.921875 	0.5 	335.689
0.53125 	-0.921875 	0.5 	335.651
0.546875 	-0.921875 	0.5 	335.616
0.5625 	-0.921875 	0.5 	335.586
0.578125 	-0.921875 	0.5 	335.548
0.59375 	-0.921875 	0.5 	335.496
0.609375 	-0.921875 	0.5 	335.447
0.625 	-0.921875 	0.5 	335.415
0.640625 	-0.921875 	0.5 	335.395
0.65625 	-0.921875 	0.5 	335.361
0.671875 	-0.921875 	0.5 	335.268
0.6875 	-0.921875 	0.5 	335.195
0.703125 	-0.921875 	0.5 	335.14
0.71875 	-0.921875 	0.5 	335.125
0.734375 	-0.921875 	0.5 	335.071
0.75 	-0.921875 	0.5 	334.99
0.765625 	-0.921875 	0.5 	334.897
0.78125 	-0.921875 	0.5 	334.806
0.796875 	-0.921875 	0.5 	334.713
0.8125 	-0.921875 	0.5 	334.617
0.828125 	-0.921875 	0.5 	334.525
0.84375 	-0.921875 	0.5 	334.457
0.859375 	-0.921875 	0.5 	334.395
0.875 	-0.921875 	0.5 	334.241
0.890625 	-0.921875 	0.5 	334.089
0.90625 	-0.921875 	0.5 	333.956
0.921875 	-0.921875 	0.5 	333.799
0.9375 	-0.921875 	0.5 	333.678
0.953125 	-0.921875 	0.5 	333.591
0.96875 	-0.921875 	0.5 	333.415
0.984375 	-0.921875 	0.5 	333.245
1 	-0.921875 	0.5 	333.107
1.01562 	-0.921875 	0.5 	332.916
1.03125 	-0.921875 	0.5 	332.745
1.04688 	-0.921875 	0.5 	332.554
1.0625 	-0.921875 	0.5 	332.371
1.07812 	-0.921875 	0.5 	332.178
1.09375 	-0.921875 	0.5 	331.96
1.10938 	-0.921875 	0.5 	331.744
1.125 	-0.921875 	0.5 	331.53
1.14062 	-0.921875 	0.5 	331.291
1.15625 	-0.921875 	0.5 	331.052
1.17188 	-0.921875 	0.5 	330.814
1.1875 	-0.921875 	0.5 	330.597
1.20312 	-0.921875 	0.5 	330.359
1.21875 	-0.921875 	0.5 	330.074
1.23438 	-0.921875 	0.5 	329.818
1.25 	-0.921875 	0.5 	329.539
1.26562 	-0.921875 	0.5 	329.219
1.28125 	-0.921875 	0.5 	328.958
1.29688 	-0.921875 	0.5 	328.703
1.3125 	-0.921875 	0.5 	328.368
1.32812 	-0.921875 	0.5 	328.08
1.34375 	-0.921875 	0.5 	327.829
1.35938 	-0.921875 	0.5 	327.545
1.375 	-0.921875 	0.5 	327.372
1.39062 	-0.921875 	0.5 	327.133
1.40625 	-0.921875 	0.5 	326.75
1.42188 	-0.921875 	0.5 	326.369
1.4375 	-0.921875 	0.5 	326.062
1.45312 	-0.921875 	0.5 	325.75
1.46875 	-0.921875 	0.5 	325.439
1.48438 	-0.921875 	0.5 	325.127
-0.5 	-0.90625 	0.5 	332.301
-0.484375 	-0.90625 	0.5 	332.569
-0.46875 	-0.90625 	0.5 	332.828
-0.453125 	-0.90625 	0.5 	333.056
-0.4375 	-0.90625 	0.5 	333.286
-0.421875 	-0.90625 	0.5 	333.508
-0.40625 	-0.90625 	0.5 	333.748
-0.390625 	-0.90625 	0.5 	334.047
-0.375 	-0.90625 	0.5 	334.387
-0.359375 	-0.90625 	0.5 	334.516
-0.34375 	-0.90625 	0.5 	334.677
-0.328125 	-0.90625 	0.5 	334.771
-0.3125 	-0.90625 	0.5 	335.035
-0.296875 	-0.90625 	0.5 	335.402
-0.28125 	-0.90625 	0.5 	335.446
-0.265625 	-0.90625 	0.5 	335.682
-0.25 	-0.90625 	0.5 	335.75
-0.234375 	-0.90625 	0.5 	335.88
-0.21875 	-0.90625 	0.5 	335.979
-0.203125 	-0.90625 	0.5 	336.169
-0.1875 	-0.90625 	0.5 	336.394
-0.171875 	-0.90625 	0.5 	336.441
-0.15625 	-0.90625 	0.5 	336.492
-0.140625 	-0.90625 	0.5 	336.553
-0.125 	-0.90625 	0.5 	336.642
-0.109375 	-0.90625 	0.5 	336.807
-0.09375 	-0.90625 	0.5 	336.821
-0.078125 	-0.90625 	0.5 	336.889
-0.0625 	-0.90625 	0.5 	336.844
-0.046875 	-0.90625 	0.5 	336.855
-0.03125 	-0.90625 	0.5 	336.946
-0.015625 	-0.90625 	0.5 	336.954
0 	-0.90625 	0.5 	336.989
0.015625 	-0.90625 	0.5 	336.973
0.03125 	-0.90625 	0.5 	336.991
0.046875 	-0.90625 	0.5 	336.985
0.0625 	-0.90625 	0.5 	336.968
0.078125 	-0.90625 	0.5 	336.938
0.09375 	-0.90625 	0.5 	336.93
0.109375 	-0.90625 	0.5 	336.878
0.125 	-0.90625 	0.5 	336.85
0.140625 	-0.90625 	0.5 	336.824
0.15625 	-0.90625 	0.5 	336.796
0.171875 	-0.90625 	0.5 	336.807
0.1875 	-0.90625 	0.5 	336.75
0.203125 	-0.90625 	0.5 	336.713
0.21875 	-0.90625 	0.5 	336.694
0.234375 	-0.90625 	0.5 	336.609
0.25 	-0.90625 	0.5 	336.558
0.265625 	-0.90625 	0.5 	336.525
0.28125 	-0.90625 	0.5 	336.483
0.296875 	-0.90625 	0.5 	336.457
0.3125 	-0.90625 	0.5 	336.389
0.328125 	-0.90625 	0.5 	336.377
0.34375 	-0.90625 	0.5 	336.284
0.359375 	-0.90625 	0.5 	336.235
0.375 	-0.90625 	0.5 	336.211
0.390625 	-0.90625 	0.5 	336.175
0.40625 	-0.90625 	0.5 	336.16
0.421875 	-0.90625 	0.5 	336.154
0.4375 	-0.90625 	0.5 	336.137
0.453125 	-0.90625 	0.5 	336.047
0.46875 	-0.90625 	0.5 	336.005
0.484375 	-0.90625 	0.5 	335.872
0.5 	-0.90625 	0.5 	335.928
0.515625 	-0.90625 	0.5 	335.925
0.53125 	-0.90625 	0.5 	335.898
0.546875 	-0.90625 	0.5 	335.859
0.5625 	-0.90625 	0.5 	335.84
0.578125 	-0.90625 	0.5 	335.809
0.59375 	-0.90625 	0.5 	335.757
0.609375 	-0.90625 	0.5 	335.706
0.625 	-0.90625 	0.5 	335.667
0.640625 	-0.90625 	0.5 	335.63
0.65625 	-0.90625 	0.5 	335.6
0.671875 	-0.90625 	0.5 	335.536
0.6875 	-0.90625 	0.5 	335.477
0.703125 	-0.90625 	0.5 	335.427
0.71875 	-0.90625 	0.5 	335.408
0.734375 	-0.90625 	0.5 	335.341
0.75 	-0.90625 	0.5 	335.295
0.765625 	-0.90625 	0.5 	335.177
0.78125 	-0.90625 	0.5 	335.078
0.796875 	-0.90625 	0.5 	335.023
0.8125 	-0.90625 	0.5 	334.979
0.828125 	-0.90625 	0.5 	334.86
0.84375 	-0.90625 	0.5 	334.738
0.859375 	-0.90625 	0.5 	334.597
0.875 	-0.90625 	0.5 	334.467
0.890625 	-0.90625 	0.5 	334.442
0.90625 	-0.90625 	0.5 	334.288
0.921875 	-0.90625 	0.5 	334.113
0.9375 	-0.90625 	0.5 	334.009
0.953125 	-0.90625 	0.5 	333.904
0.96875 	-0.90625 	0.5 	333.729
0.984375 	-0.90625 	0.5 	333.522
1 	-0.90625 	0.5 	333.362
1.01562 	-0.90625 	0.5 	333.236
1.03125 	-0.90625 	0.5 	333.027
1.04688 	-0.90625 	0.5 	332.845
1.0625 	-0.90625 	0.5 	332.647
1.07812 	-0.90625 	0.5 	332.446
1.09375 	-0.90625 	0.5 	332.215
1.10938 	-0.90625 	0.5 	332
1.125 	-0.90625 	0.5 	331.776
1.14062 	-0.90625 	0.5 	331.526
1.15625 	-0.90625 	0.5 	331.3
1.17188 	-0.90625 	0.5 	331.04
1.1875 	-0.90625 	0.5 	330.812
1.20312 	-0.90625 	0.5 	330.586
1.21875 	-0.90625 	0.5 	330.314
1.23438 	-0.90625 	0.5 	330.042
1.25 	-0.90625 	0.5 	329.803
1.26562 	-0.90625 	0.5 	329.531
1.28125 	-0.90625 	0.5 	329.212
1.29688 	-0.90625 	0.5 	328.891
1.3125 	-0.90625 	0.5 	328.593
1.32812 	-0.90625 	0.5 	328.293
1.34375 	-0.90625 	0.5 	328.01
1.35938 	-0.90625 	0.5 	327.76
1.375 	-0.90625 	0.5 	327.487
1.39062 	-0.90625 	0.5 	327.158
1.40625 	-0.90625 	0.5 	326.888
1.42188 	-0.90625 	0.5 	326.509
1.4375 	-0.90625 	0.5 	326.144
1.45312 	-0.90625 	0.5 	325.79
1.46875 	-0.90625 	0.5 	325.476
1.48438 	-0.90625 	0.5 	325.212
-0.5 	-0.890625 	0.5 	332.552
-0.484375 	-0.890625 	0.5 	332.888
-0.46875 	-0.890625 	0.5 	333.119
-0.453125 	-0.890625 	0.5 	333.343
-0.4375 	-0.890625 	0.5 	333.573
-0.421875 	-0.890625 	0.5 	333.806
-0.40625 	-0.890625 	0.5 	334.135
-0.390625 	-0.890625 	0.5 	334.596
-0.375 	-0.890625 	0.5 	334.616
-0.359375 	-0.890625 	0.5 	334.887
-0.34375 	-0.890625 	0.5 	334.877
-0.328125 	-0.890625 	0.5 	335.104
-0.3125 	-0.890625 	0.5 	335.365
-0.296875 	-0.890625 	0.5 	335.598
-0.28125 	-0.890625 	0.5 	335.888
-0.265625 	-0.890625 	0.5 	336.051
-0.25 	-0.890625 	0.5 	336.109
-0.234375 	-0.890625 	0.5 	336.214
-0.21875 	-0.890625 	0.5 	336.346
-0.203125 	-0.890625 	0.5 	336.545
-0.1875 	-0.890625 	0.5 	336.668
-0.171875 	-0.890625 	0.5 	336.79
-0.15625 	-0.890625 	0.5 	336.873
-0.140625 	-0.890625 	0.5 	336.929
-0.125 	-0.890625 	0.5 	336.985
-0.109375 	-0.890625 	0.5 	337.125
-0.09375 	-0.890625 	0.5 	337.18
-0.078125 	-0.890625 	0.5 	337.263
-0.0625 	-0.890625 	0.5 	337.252
-0.046875 	-0.890625 	0.5 	337.277
-0.03125 	-0.890625 	0.5 	337.276
-0.015625 	-0.890625 	0.5 	337.275
0 	-0.890625 	0.5 	337.295
0.015625 	-0.890625 	0.5 	337.302
0.03125 	-0.890625 	0.5 	337.326
0.046875 	-0.890625 	0.5 	337.364
0.0625 	-0.890625 	0.5 	337.301
0.078125 	-0.890625 	0.5 	337.222
0.09375 	-0.890625 	0.5 	337.187
0.109375 	-0.890625 	0.5 	337.211
0.125 	-0.890625 	0.5 	337.15
0.140625 	-0.890625 	0.5 	337.097
0.15625 	-0.890625 	0.5 	337.075
0.171875 	-0.890625 	0.5 	337.05
0.1875 	-0.890625 	0.5 	337.02
0.203125 	-0.890625 	0.5 	336.955
0.21875 	-0.890625 	0.5 	336.924
0.234375 	-0.890625 	0.5 	336.874
0.25 	-0.890625 	0.5 	336.84
0.265625 	-0.890625 	0.5 	336.798
0.28125 	-0.890625 	0.5 	336.735
0.296875 	-0.890625 	0.5 	336.696
0.3125 	-0.890625 	0.5 	336.661
0.328125 	-0.890625 	0.5 	336.62
0.34375 	-0.890625 	0.5 	336.553