-0.5 	-1 	0.5 	39.2263 	0.453696 	8.04305e-20
-0.484375 	-1 	0.5 	39.2181 	0.450516 	2.12435e-19
-0.46875 	-1 	0.5 	39.2096 	0.446736 	2.02353e-19
-0.453125 	-1 	0.5 	39.201 	0.440781 	-2.23839e-19
-0.4375 	-1 	0.5 	39.1933 	0.434219 	-3.69315e-19
-0.421875 	-1 	0.5 	39.1849 	0.429624 	1.615e-19
-0.40625 	-1 	0.5 	39.1772 	0.422993 	6.33507e-19
-0.390625 	-1 	0.5 	39.1695 	0.418293 	5.52067e-20
-0.375 	-1 	0.5 	39.1616 	0.411946 	5.59258e-20
-0.359375 	-1 	0.5 	39.1538 	0.406283 	4.41288e-19
-0.34375 	-1 	0.5 	39.1463 	0.400304 	5.80673e-19
-0.328125 	-1 	0.5 	39.1397 	0.393298 	-2.31299e-20
-0.3125 	-1 	0.5 	39.1312 	0.386608 	-2.95682e-19
-0.296875 	-1 	0.5 	39.1221 	0.378937 	-1.61123e-19
-0.28125 	-1 	0.5 	39.114 	0.371402 	-6.04663e-20
-0.265625 	-1 	0.5 	39.1077 	0.364345 	-1.09809e-19
-0.25 	-1 	0.5 	39.1018 	0.357045 	-1.87463e-19
-0.234375 	-1 	0.5 	39.0952 	0.34994 	-1.8037e-19
-0.21875 	-1 	0.5 	39.0878 	0.34112 	1.143e-19
-0.203125 	-1 	0.5 	39.0808 	0.335341 	3.41816e-21
-0.1875 	-1 	0.5 	39.0747 	0.326744 	3.01847e-20
-0.171875 	-1 	0.5 	39.0675 	0.318003 	1.75024e-19
-0.15625 	-1 	0.5 	39.0614 	0.309241 	1.76182e-19
-0.140625 	-1 	0.5 	39.0546 	0.301105 	-9.01827e-20
-0.125 	-1 	0.5 	39.0491 	0.292135 	-2.12639e-20
-0.109375 	-1 	0.5 	39.0429 	0.283296 	6.87124e-20
-0.09375 	-1 	0.5 	39.0366 	0.27396 	4.10024e-20
-0.078125 	-1 	0.5 	39.0316 	0.262924 	2.32912e-19
-0.0625 	-1 	0.5 	39.0265 	0.253753 	1.97503e-19
-0.046875 	-1 	0.5 	39.0211 	0.245045 	1.37522e-19
-0.03125 	-1 	0.5 	39.0157 	0.236337 	7.75402e-20
-0.015625 	-1 	0.5 	39.0102 	0.227293 	1.00988e-20
0 	-1 	0.5 	39.0054 	0.216853 	-4.09763e-20
0.015625 	-1 	0.5 	39.0005 	0.206511 	-1.07625e-19
0.03125 	-1 	0.5 	38.9957 	0.196102 	-1.19129e-19
0.046875 	-1 	0.5 	38.9914 	0.18458 	1.47695e-20
0.0625 	-1 	0.5 	38.9869 	0.173345 	1.23872e-19
0.078125 	-1 	0.5 	38.9828 	0.163584 	-3.34931e-20
0.09375 	-1 	0.5 	38.9783 	0.154156 	2.36596e-20
0.109375 	-1 	0.5 	38.9759 	0.142146 	5.35026e-20
0.125 	-1 	0.5 	38.9733 	0.130632 	7.83816e-20
0.140625 	-1 	0.5 	38.9697 	0.11973 	1.34902e-20
0.15625 	-1 	0.5 	38.9664 	0.108641 	-3.84245e-20
0.171875 	-1 	0.5 	38.9625 	0.0984946 	-7.37112e-20
0.1875 	-1 	0.5 	38.9601 	0.0863452 	-6.30743e-20
0.203125 	-1 	0.5 	38.9578 	0.0740204 	-1.71217e-20
0.21875 	-1 	0.5 	38.9593 	0.0645756 	-5.85325e-21
0.234375 	-1 	0.5 	38.9556 	0.0526904 	-1.86765e-21
0.25 	-1 	0.5 	38.9521 	0.040711 	3.38549e-20
0.265625 	-1 	0.5 	38.9521 	0.0289977 	3.07737e-20
0.28125 	-1 	0.5 	38.9509 	0.0167649 	-2.18452e-20
0.296875 	-1 	0.5 	38.9492 	0.00310352 	-9.31942e-20
0.3125 	-1 	0.5 	38.9486 	-0.00837046 	-1.48345e-20
0.328125 	-1 	0.5 	38.9508 	-0.0193747 	2.07581e-19
0.34375 	-1 	0.5 	38.9498 	-0.0300195 	-1.65382e-21
0.359375 	-1 	0.5 	38.9501 	-0.0415645 	-1.51453e-20
0.375 	-1 	0.5 	38.9508 	-0.054019 	-4.01531e-20
0.390625 	-1 	0.5 	38.951 	-0.0651947 	4.36394e-20
0.40625 	-1 	0.5 	38.9513 	-0.0766162 	1.32099e-19
0.421875 	-1 	0.5 	38.9537 	-0.0892407 	4.84193e-20
0.4375 	-1 	0.5 	38.9579 	-0.100415 	6.11824e-21
0.453125 	-1 	0.5 	38.9581 	-0.113268 	1.6375e-20
0.46875 	-1 	0.5 	38.9593 	-0.124164 	1.18725e-20
0.484375 	-1 	0.5 	38.9607 	-0.135762 	4.5228e-20
0.5 	-1 	0.5 	38.9623 	-0.147634 	8.39133e-20
0.515625 	-1 	0.5 	38.9652 	-0.158943 	1.00101e-19
0.53125 	-1 	0.5 	38.969 	-0.170524 	1.22493e-19
0.546875 	-1 	0.5 	38.9723 	-0.180715 	-4.22866e-21
0.5625 	-1 	0.5 	38.9759 	-0.192631 	1.31692e-19
0.578125 	-1 	0.5 	38.9791 	-0.205326 	9.71755e-20
0.59375 	-1 	0.5 	38.982 	-0.218236 	-6.98471e-20
0.609375 	-1 	0.5 	38.987 	-0.226704 	7.40719e-21
0.625 	-1 	0.5 	38.9931 	-0.23675 	2.67123e-21
0.640625 	-1 	0.5 	38.9988 	-0.248378 	-1.16948e-19
0.65625 	-1 	0.5 	39.003 	-0.25935 	1.18586e-19
0.671875 	-1 	0.5 	39.0081 	-0.267297 	6.03928e-19
0.6875 	-1 	0.5 	39.0136 	-0.27812 	1.53366e-19
0.703125 	-1 	0.5 	39.0189 	-0.290906 	-3.09219e-20
0.71875 	-1 	0.5 	39.0254 	-0.299501 	6.71359e-20
0.734375 	-1 	0.5 	39.0306 	-0.310388 	4.64351e-20
0.75 	-1 	0.5 	39.035 	-0.320295 	-1.96274e-21
0.765625 	-1 	0.5 	39.0422 	-0.325936 	-5.51347e-20
0.78125 	-1 	0.5 	39.048 	-0.337828 	4.77326e-20
0.796875 	-1 	0.5 	39.0539 	-0.352034 	5.07049e-20
0.8125 	-1 	0.5 	39.0608 	-0.358734 	2.70829e-20
0.828125 	-1 	0.5 	39.0675 	-0.365175 	2.02502e-20
0.84375 	-1 	0.5 	39.0749 	-0.37397 	3.2006e-21
0.859375 	-1 	0.5 	39.0824 	-0.381939 	1.14028e-19
0.875 	-1 	0.5 	39.0898 	-0.389681 	3.49803e-19
0.890625 	-1 	0.5 	39.0974 	-0.39767 	4.03592e-19
0.90625 	-1 	0.5 	39.1049 	-0.40666 	2.51732e-19
0.921875 	-1 	0.5 	39.1123 	-0.414295 	1.92449e-19
0.9375 	-1 	0.5 	39.12 	-0.421233 	1.61802e-20
0.953125 	-1 	0.5 	39.1279 	-0.4295 	-7.14279e-20
0.96875 	-1 	0.5 	39.1359 	-0.436877 	-3.336e-20
0.984375 	-1 	0.5 	39.1439 	-0.444907 	9.22212e-20
1 	-1 	0.5 	39.1523 	-0.451559 	2.8384e-19
1.01562 	-1 	0.5 	39.16 	-0.459232 	7.60063e-20
1.03125 	-1 	0.5 	39.169 	-0.462648 	1.24835e-20
1.04688 	-1 	0.5 	39.1772 	-0.469279 	-4.21954e-23
1.0625 	-1 	0.5 	39.1851 	-0.476421 	-4.17767e-23
1.07812 	-1 	0.5 	39.1931 	-0.481807 	-2.7338e-20
1.09375 	-1 	0.5 	39.2014 	-0.48769 	3.25675e-20
1.10938 	-1 	0.5 	39.2096 	-0.493897 	8.54482e-20
1.125 	-1 	0.5 	39.2178 	-0.497748 	1.29898e-20
1.14062 	-1 	0.5 	39.2268 	-0.502694 	2.23796e-20
1.15625 	-1 	0.5 	39.2358 	-0.50764 	3.19479e-20
1.17188 	-1 	0.5 	39.2448 	-0.512585 	4.15162e-20
1.1875 	-1 	0.5 	39.2538 	-0.517125 	2.56932e-20
1.20312 	-1 	0.5 	39.2626 	-0.520639 	-5.18891e-21
1.21875 	-1 	0.5 	39.2713 	-0.524155 	-4.4345e-20
1.23438 	-1 	0.5 	39.28 	-0.527671 	-8.3501e-20
1.25 	-1 	0.5 	39.2887 	-0.53122 	-1.24373e-19
1.26562 	-1 	0.5 	39.2978 	-0.534999 	-9.51829e-20
1.28125 	-1 	0.5 	39.3071 	-0.539402 	1.96724e-19
1.29688 	-1 	0.5 	39.3164 	-0.543073 	1.03694e-19
1.3125 	-1 	0.5 	39.3259 	-0.545472 	-4.64767e-19
1.32812 	-1 	0.5 	39.3348 	-0.548057 	-5.64731e-19
1.34375 	-1 	0.5 	39.343 	-0.551008 	-2.75888e-19
1.35938 	-1 	0.5 	39.3511 	-0.553562 	-1.36656e-19
1.375 	-1 	0.5 	39.359 	-0.556139 	-1.3995e-19
1.39062 	-1 	0.5 	39.3675 	-0.557857 	-1.89407e-19
1.40625 	-1 	0.5 	39.3756 	-0.559326 	-2.74006e-19
1.42188 	-1 	0.5 	39.3836 	-0.56076 	-3.62083e-19
1.4375 	-1 	0.5 	39.3928 	-0.563442 	-1.71826e-19
1.45312 	-1 	0.5 	39.402 	-0.564613 	-1.47094e-19
1.46875 	-1 	0.5 	39.411 	-0.565946 	-5.59843e-20
1.48438 	-1 	0.5 	39.4193 	-0.567513 	2.54659e-20
-0.5 	-0.984375 	0.5 	39.2225 	0.457968 	1.89787e-19
-0.484375 	-0.984375 	0.5 	39.2132 	0.453898 	1.54886e-19
-0.46875 	-0.984375 	0.5 	39.2018 	0.452842 	3.87347e-20
-0.453125 	-0.984375 	0.5 	39.193 	0.448666 	-1.08994e-19
-0.4375 	-0.984375 	0.5 	39.1851 	0.442609 	3.796e-19
-0.421875 	-0.984375 	0.5 	39.1775 	0.435977 	8.51607e-19
-0.40625 	-0.984375 	0.5 	39.1699 	0.430589 	7.75864e-19
-0.390625 	-0.984375 	0.5 	39.1622 	0.426266 	4.62031e-20
-0.375 	-0.984375 	0.5 	39.154 	0.419672 	-2.00973e-19
-0.359375 	-0.984375 	0.5 	39.1463 	0.413491 	-3.40133e-20
-0.34375 	-0.984375 	0.5 	39.1385 	0.407682 	2.89639e-19
-0.328125 	-0.984375 	0.5 	39.1312 	0.400986 	-1.39037e-19
-0.3125 	-0.984375 	0.5 	39.1221 	0.39339 	-3.59886e-20
-0.296875 	-0.984375 	0.5 	39.1133 	0.386846 	-3.95247e-20
-0.28125 	-0.984375 	0.5 	39.1054 	0.380716 	6.14845e-20
-0.265625 	-0.984375 	0.5 	39.0978 	0.371001 	-1.07654e-19
-0.25 	-0.984375 	0.5 	39.0926 	0.363522 	-2.63317e-19
-0.234375 	-0.984375 	0.5 	39.0839 	0.356607 	1.05615e-20
-0.21875 	-0.984375 	0.5 	39.0783 	0.345219 	3.33257e-19
-0.203125 	-0.984375 	0.5 	39.0706 	0.341207 	1.34367e-19
-0.1875 	-0.984375 	0.5 	39.0639 	0.334182 	8.37045e-20
-0.171875 	-0.984375 	0.5 	39.0577 	0.325071 	2.26956e-19
-0.15625 	-0.984375 	0.5 	39.0508 	0.317086 	4.47033e-20
-0.140625 	-0.984375 	0.5 	39.0441 	0.308456 	1.46338e-20
-0.125 	-0.984375 	0.5 	39.037 	0.298512 	-1.92805e-19
-0.109375 	-0.984375 	0.5 	39.0308 	0.288941 	-4.11947e-19
-0.09375 	-0.984375 	0.5 	39.0247 	0.279582 	2.012e-19
-0.078125 	-0.984375 	0.5 	39.0182 	0.269489 	8.27172e-20
-0.0625 	-0.984375 	0.5 	39.0156 	0.255998 	2.76995e-19
-0.046875 	-0.984375 	0.5 	39.0081 	0.250838 	2.84176e-20
-0.03125 	-0.984375 	0.5 	39.0035 	0.241177 	-2.44367e-20
-0.015625 	-0.984375 	0.5 	38.9973 	0.231677 	8.28764e-20
0 	-0.984375 	0.5 	38.9914 	0.22271 	-2.23863e-20
0.015625 	-0.984375 	0.5 	38.9868 	0.212054 	-8.22584e-20
0.03125 	-0.984375 	0.5 	38.982 	0.200833 	-2.6499e-19
0.046875 	-0.984375 	0.5 	38.9765 	0.189359 	-3.15147e-20
0.0625 	-0.984375 	0.5 	38.9715 	0.178907 	-2.12129e-20
0.078125 	-0.984375 	0.5 	38.9708 	0.167529 	-1.26663e-19
0.09375 	-0.984375 	0.5 	38.9663 	0.15676 	2.05597e-20
0.109375 	-0.984375 	0.5 	38.9627 	0.146789 	2.38587e-20
0.125 	-0.984375 	0.5 	38.9596 	0.135377 	1.25092e-19
0.140625 	-0.984375 	0.5 	38.9575 	0.121385 	2.6376e-20
0.15625 	-0.984375 	0.5 	38.9544 	0.110986 	-1.39643e-20
0.171875 	-0.984375 	0.5 	38.9499 	0.100435 	-3.96231e-20
0.1875 	-0.984375 	0.5 	38.9493 	0.0897354 	-1.00547e-19
0.203125 	-0.984375 	0.5 	38.945 	0.0762049 	6.66163e-21
0.21875 	-0.984375 	0.5 	38.9434 	0.0652611 	-3.6761e-20
0.234375 	-0.984375 	0.5 	38.9426 	0.0543728 	-7.29375e-21
0.25 	-0.984375 	0.5 	38.9414 	0.0430869 	-1.98865e-21
0.265625 	-0.984375 	0.5 	38.9411 	0.0308458 	5.00447e-21
0.28125 	-0.984375 	0.5 	38.9403 	0.0180518 	-9.56363e-21
0.296875 	-0.984375 	0.5 	38.9372 	0.00524334 	-2.83982e-20
0.3125 	-0.984375 	0.5 	38.9395 	-0.0078459 	-2.71866e-19
0.328125 	-0.984375 	0.5 	38.9377 	-0.0190926 	-1.38076e-19
0.34375 	-0.984375 	0.5 	38.9361 	-0.0305568 	-1.50727e-21
0.359375 	-0.984375 	0.5 	38.9368 	-0.0430121 	1.11187e-19
0.375 	-0.984375 	0.5 	38.9374 	-0.0551485 	1.32641e-19
0.390625 	-0.984375 	0.5 	38.9369 	-0.0648033 	-1.34879e-19
0.40625 	-0.984375 	0.5 	38.9384 	-0.0777617 	-1.90835e-20
0.421875 	-0.984375 	0.5 	38.9404 	-0.0907291 	6.32712e-20
0.4375 	-0.984375 	0.5 	38.9429 	-0.102819 	3.39386e-20
0.453125 	-0.984375 	0.5 	38.9451 	-0.114945 	1.38092e-20
0.46875 	-0.984375 	0.5 	38.947 	-0.127388 	7.61058e-21
0.484375 	-0.984375 	0.5 	38.9478 	-0.138454 	-5.95489e-21
0.5 	-0.984375 	0.5 	38.9496 	-0.150452 	3.09584e-20
0.515625 	-0.984375 	0.5 	38.9508 	-0.163217 	2.61807e-19
0.53125 	-0.984375 	0.5 	38.9548 	-0.173174 	1.84068e-19
0.546875 	-0.984375 	0.5 	38.9593 	-0.183426 	3.03722e-20
0.5625 	-0.984375 	0.5 	38.9632 	-0.195298 	1.38169e-19
0.578125 	-0.984375 	0.5 	38.9662 	-0.208038 	9.84783e-20
0.59375 	-0.984375 	0.5 	38.9699 	-0.220469 	9.29725e-21
0.609375 	-0.984375 	0.5 	38.9757 	-0.231345 	8.43588e-21
0.625 	-0.984375 	0.5 	38.9816 	-0.242387 	9.7179e-21
0.640625 	-0.984375 	0.5 	38.9874 	-0.253185 	-1.82862e-19
0.65625 	-0.984375 	0.5 	38.992 	-0.264215 	-1.19801e-19
0.671875 	-0.984375 	0.5 	38.9962 	-0.274484 	2.94925e-19
0.6875 	-0.984375 	0.5 	39.0014 	-0.286835 	1.87812e-20
0.703125 	-0.984375 	0.5 	39.0065 	-0.300513 	-7.03492e-20
0.71875 	-0.984375 	0.5 	39.0131 	-0.308906 	-5.32817e-20
0.734375 	-0.984375 	0.5 	39.0199 	-0.316325 	3.0102e-20
0.75 	-0.984375 	0.5 	39.0257 	-0.324118 	-2.8673e-20
0.765625 	-0.984375 	0.5 	39.0317 	-0.334539 	4.55639e-20
0.78125 	-0.984375 	0.5 	39.0379 	-0.344742 	1.09327e-19
0.796875 	-0.984375 	0.5 	39.0432 	-0.352888 	2.37181e-19
0.8125 	-0.984375 	0.5 	39.0488 	-0.360807 	3.26232e-19
0.828125 	-0.984375 	0.5 	39.0576 	-0.371966 	-3.6546e-20
0.84375 	-0.984375 	0.5 	39.0648 	-0.380858 	-1.91085e-19
0.859375 	-0.984375 	0.5 	39.0735 	-0.387864 	1.79563e-19
0.875 	-0.984375 	0.5 	39.081 	-0.396129 	1.93245e-19
0.890625 	-0.984375 	0.5 	39.0885 	-0.404451 	2.01131e-19
0.90625 	-0.984375 	0.5 	39.096 	-0.412417 	1.36083e-19
0.921875 	-0.984375 	0.5 	39.1036 	-0.420055 	-6.50926e-20
0.9375 	-0.984375 	0.5 	39.1114 	-0.42814 	-1.85791e-19
0.953125 	-0.984375 	0.5 	39.1204 	-0.435282 	-1.62404e-19
0.96875 	-0.984375 	0.5 	39.1264 	-0.445213 	-2.98702e-20
0.984375 	-0.984375 	0.5 	39.1359 	-0.451553 	1.04327e-20
1 	-0.984375 	0.5 	39.1433 	-0.460814 	7.69728e-20
1.01562 	-0.984375 	0.5 	39.1514 	-0.467894 	1.01824e-19
1.03125 	-0.984375 	0.5 	39.1598 	-0.473912 	7.95609e-20
1.04688 	-0.984375 	0.5 	39.1685 	-0.47911 	4.31711e-20
1.0625 	-0.984375 	0.5 	39.1775 	-0.484808 	7.62011e-21
1.07812 	-0.984375 	0.5 	39.1869 	-0.490479 	2.75364e-20
1.09375 	-0.984375 	0.5 	39.194 	-0.498126 	1.52784e-19
1.10938 	-0.984375 	0.5 	39.2042 	-0.501916 	8.41119e-20
1.125 	-0.984375 	0.5 	39.2123 	-0.505806 	1.34742e-20
1.14062 	-0.984375 	0.5 	39.2195 	-0.510814 	8.25521e-21
1.15625 	-0.984375 	0.5 	39.2304 	-0.515693 	3.35475e-20
1.17188 	-0.984375 	0.5 	39.2395 	-0.521018 	3.13104e-20
1.1875 	-0.984375 	0.5 	39.2496 	-0.525543 	3.17625e-19
1.20312 	-0.984375 	0.5 	39.2578 	-0.529958 	-2.51501e-19
1.21875 	-0.984375 	0.5 	39.2658 	-0.533154 	-5.38799e-19
1.23438 	-0.984375 	0.5 	39.2746 	-0.536657 	-5.25846e-19
1.25 	-0.984375 	0.5 	39.2843 	-0.540529 	-1.5145e-19
1.26562 	-0.984375 	0.5 	39.2932 	-0.543998 	-1.71207e-19
1.28125 	-0.984375 	0.5 	39.3027 	-0.548319 	1.0153e-19
1.29688 	-0.984375 	0.5 	39.312 	-0.552108 	7.01051e-20
1.3125 	-0.984375 	0.5 	39.3215 	-0.554486 	-4.9991e-19
1.32812 	-0.984375 	0.5 	39.3302 	-0.557158 	-5.07154e-19
1.34375 	-0.984375 	0.5 	39.3385 	-0.56008 	-2.49821e-19
1.35938 	-0.984375 	0.5 	39.3479 	-0.563199 	-1.34817e-19
1.375 	-0.984375 	0.5 	39.3565 	-0.565095 	-1.27895e-19
1.39062 	-0.984375 	0.5 	39.3641 	-0.566118 	-3.01542e-19
1.40625 	-0.984375 	0.5 	39.3717 	-0.567127 	-4.65515e-19
1.42188 	-0.984375 	0.5 	39.3816 	-0.57058 	-1.92611e-19
1.4375 	-0.984375 	0.5 	39.3901 	-0.572515 	-8.25562e-20
1.45312 	-0.984375 	0.5 	39.3991 	-0.573686 	-9.96104e-20
1.46875 	-0.984375 	0.5 	39.4084 	-0.574854 	-6.75341e-20
1.48438 	-0.984375 	0.5 	39.417 	-0.576329 	1.77211e-20
-0.5 	-0.96875 	0.5 	39.2146 	0.468489 	1.37486e-19
-0.484375 	-0.96875 	0.5 	39.2043 	0.465501 	4.1762e-20
-0.46875 	-0.96875 	0.5 	39.1943 	0.460331 	-1.30804e-19
-0.453125 	-0.96875 	0.5 	39.1859 	0.457491 	-3.50326e-20
-0.4375 	-0.96875 	0.5 	39.1779 	0.45131 	1.74496e-20
-0.421875 	-0.96875 	0.5 	39.1702 	0.444794 	4.56605e-19
-0.40625 	-0.96875 	0.5 	39.1625 	0.438511 	7.75092e-19
-0.390625 	-0.96875 	0.5 	39.1548 	0.43424 	3.71996e-20
-0.375 	-0.96875 	0.5 	39.1467 	0.427685 	-1.70663e-19
-0.359375 	-0.96875 	0.5 	39.1389 	0.421429 	-7.86557e-20
-0.34375 	-0.96875 	0.5 	39.1311 	0.41516 	-2.62436e-21
-0.328125 	-0.96875 	0.5 	39.1225 	0.408763 	-1.1343e-21
-0.3125 	-0.96875 	0.5 	39.1136 	0.402416 	-3.72483e-21
-0.296875 	-0.96875 	0.5 	39.1051 	0.395363 	-1.73157e-20
-0.28125 	-0.96875 	0.5 	39.0974 	0.389046 	9.69957e-20
-0.265625 	-0.96875 	0.5 	39.0886 	0.380397 	1.01186e-19
-0.25 	-0.96875 	0.5 	39.081 	0.370623 	-6.80863e-20
-0.234375 	-0.96875 	0.5 	39.074 	0.362118 	1.29686e-19
-0.21875 	-0.96875 	0.5 	39.067 	0.355458 	1.1805e-19
-0.203125 	-0.96875 	0.5 	39.0601 	0.348797 	1.06414e-19
-0.1875 	-0.96875 	0.5 	39.0532 	0.341514 	1.23645e-19
-0.171875 	-0.96875 	0.5 	39.0465 	0.33265 	1.69898e-19
-0.15625 	-0.96875 	0.5 	39.0398 	0.323819 	1.95846e-19
-0.140625 	-0.96875 	0.5 	39.0332 	0.315552 	3.05343e-21
-0.125 	-0.96875 	0.5 	39.0247 	0.304066 	2.07093e-20
-0.109375 	-0.96875 	0.5 	39.0178 	0.293983 	-3.91213e-20
-0.09375 	-0.96875 	0.5 	39.0133 	0.285443 	2.32108e-19
-0.078125 	-0.96875 	0.5 	39.0064 	0.275326 	8.37534e-20
-0.0625 	-0.96875 	0.5 	39.0003 	0.265446 	-4.59283e-20
-0.046875 	-0.96875 	0.5 	38.995 	0.255604 	-1.37355e-19
-0.03125 	-0.96875 	0.5 	38.993 	0.244547 	1.51771e-20
-0.015625 	-0.96875 	0.5 	38.9847 	0.235586 	2.35082e-19
0 	-0.96875 	0.5 	38.9791 	0.226511 	1.09289e-20
0.015625 	-0.96875 	0.5 	38.9738 	0.216554 	-1.51225e-19
0.03125 	-0.96875 	0.5 	38.968 	0.205353 	-6.49979e-20
0.046875 	-0.96875 	0.5 	38.9628 	0.193734 	-1.1113e-20
0.0625 	-0.96875 	0.5 	38.9587 	0.182503 	-2.65533e-20
0.078125 	-0.96875 	0.5 	38.9561 	0.171676 	-3.02053e-20
0.09375 	-0.96875 	0.5 	38.9543 	0.160385 	-5.2916e-20
0.109375 	-0.96875 	0.5 	38.9507 	0.149371 	2.23395e-20
0.125 	-0.96875 	0.5 	38.9471 	0.138323 	9.95395e-20
0.140625 	-0.96875 	0.5 	38.9454 	0.12386 	3.99353e-20
0.15625 	-0.96875 	0.5 	38.9416 	0.113008 	1.79126e-20
0.171875 	-0.96875 	0.5 	38.9373 	0.102376 	-5.77577e-21
0.1875 	-0.96875 	0.5 	38.9339 	0.0908503 	-2.405e-21
0.203125 	-0.96875 	0.5 	38.9338 	0.0782132 	8.02258e-20
0.21875 	-0.96875 	0.5 	38.9308 	0.0672212 	-9.16636e-20
0.234375 	-0.96875 	0.5 	38.9296 	0.0561407 	-1.44675e-20
0.25 	-0.96875 	0.5 	38.9271 	0.0433964 	-3.95309e-21
0.265625 	-0.96875 	0.5 	38.9259 	0.0319107 	-1.83964e-23
0.28125 	-0.96875 	0.5 	38.9268 	0.018719 	-4.27694e-21
0.296875 	-0.96875 	0.5 	38.9259 	0.00690537 	-2.13808e-20
0.3125 	-0.96875 	0.5 	38.9244 	-0.00563475 	-5.76688e-20
0.328125 	-0.96875 	0.5 	38.9246 	-0.0184247 	-1.02915e-19
0.34375 	-0.96875 	0.5 	38.923 	-0.0317799 	-6.9452e-20
0.359375 	-0.96875 	0.5 	38.9231 	-0.0438688 	-4.95889e-20
0.375 	-0.96875 	0.5 	38.9239 	-0.0561843 	2.31433e-19
0.390625 	-0.96875 	0.5 	38.9232 	-0.065682 	-1.15085e-19
0.40625 	-0.96875 	0.5 	38.9251 	-0.0794669 	9.65979e-20
0.421875 	-0.96875 	0.5 	38.9264 	-0.0923464 	2.17491e-19
0.4375 	-0.96875 	0.5 	38.9291 	-0.105085 	3.52057e-20
0.453125 	-0.96875 	0.5 	38.9308 	-0.117734 	3.95406e-20
0.46875 	-0.96875 	0.5 	38.9344 	-0.132047 	3.32775e-20
0.484375 	-0.96875 	0.5 	38.9359 	-0.141971 	-2.04721e-20
0.5 	-0.96875 	0.5 	38.9372 	-0.15346 	-1.14587e-20
0.515625 	-0.96875 	0.5 	38.9393 	-0.165287 	1.09398e-19
0.53125 	-0.96875 	0.5 	38.9432 	-0.175611 	-1.45683e-19
0.546875 	-0.96875 	0.5 	38.9466 	-0.188368 	-6.48474e-20
0.5625 	-0.96875 	0.5 	38.9516 	-0.199248 	2.44897e-19
0.578125 	-0.96875 	0.5 	38.9541 	-0.212939 	-6.44733e-20
0.59375 	-0.96875 	0.5 	38.9576 	-0.225184 	-1.75792e-21
0.609375 	-0.96875 	0.5 	38.9654 	-0.234201 	6.48914e-21
0.625 	-0.96875 	0.5 	38.9702 	-0.247892 	1.67652e-20
0.640625 	-0.96875 	0.5 	38.9747 	-0.259037 	6.01649e-20
0.65625 	-0.96875 	0.5 	38.9794 	-0.269876 	1.02302e-19
0.671875 	-0.96875 	0.5 	38.9841 	-0.280893 	8.47178e-20
0.6875 	-0.96875 	0.5 	38.9899 	-0.291589 	8.24109e-20
0.703125 	-0.96875 	0.5 	38.9958 	-0.301914 	6.19094e-20
0.71875 	-0.96875 	0.5 	39.0018 	-0.31224 	4.14079e-20
0.734375 	-0.96875 	0.5 	39.0085 	-0.322062 	-6.26933e-20
0.75 	-0.96875 	0.5 	39.0155 	-0.33248 	-1.8637e-20
0.765625 	-0.96875 	0.5 	39.0229 	-0.342996 	4.74541e-20
0.78125 	-0.96875 	0.5 	39.0292 	-0.352549 	8.20611e-20
0.796875 	-0.96875 	0.5 	39.0336 	-0.359981 	1.3809e-19
0.8125 	-0.96875 	0.5 	39.0389 	-0.367647 	2.62396e-19
0.828125 	-0.96875 	0.5 	39.0478 	-0.377666 	-3.40844e-19
0.84375 	-0.96875 	0.5 	39.055 	-0.386832 	-4.11122e-19
0.859375 	-0.96875 	0.5 	39.0631 	-0.396523 	3.51254e-20
0.875 	-0.96875 	0.5 	39.0713 	-0.403454 	1.83952e-19
0.890625 	-0.96875 	0.5 	39.0785 	-0.412747 	1.13403e-19
0.90625 	-0.96875 	0.5 	39.0878 	-0.420504 	1.20122e-19
0.921875 	-0.96875 	0.5 	39.0953 	-0.427619 	-1.48768e-19
0.9375 	-0.96875 	0.5 	39.1035 	-0.436647 	-9.92819e-20
0.953125 	-0.96875 	0.5 	39.113 	-0.440868 	-2.66103e-19
0.96875 	-0.96875 	0.5 	39.1174 	-0.452939 	-5.15454e-20
0.984375 	-0.96875 	0.5 	39.126 	-0.460296 	1.75813e-20
1 	-0.96875 	0.5 	39.134 	-0.469025 	9.82561e-20
1.01562 	-0.96875 	0.5 	39.1438 	-0.476448 	1.03323e-19
1.03125 	-0.96875 	0.5 	39.1526 	-0.481992 	7.8659e-20
1.04688 	-0.96875 	0.5 	39.1609 	-0.486295 	4.07644e-20
1.0625 	-0.96875 	0.5 	39.171 	-0.494328 	9.1389e-21
1.07812 	-0.96875 	0.5 	39.1786 	-0.498309 	-2.0093e-20
1.09375 	-0.96875 	0.5 	39.1906 	-0.503555 	2.12422e-20
1.10938 	-0.96875 	0.5 	39.1987 	-0.509935 	8.27756e-20
1.125 	-0.96875 	0.5 	39.2067 	-0.513863 	1.39585e-20
1.14062 	-0.96875 	0.5 	39.217 	-0.518764 	3.41114e-20
1.15625 	-0.96875 	0.5 	39.2253 	-0.524292 	1.93224e-20
1.17188 	-0.96875 	0.5 	39.2342 	-0.530452 	4.96544e-20
1.1875 	-0.96875 	0.5 	39.2447 	-0.53436 	4.25662e-19
1.20312 	-0.96875 	0.5 	39.2542 	-0.539055 	1.67178e-19
1.21875 	-0.96875 	0.5 	39.2621 	-0.542924 	-3.98447e-19
1.23438 	-0.96875 	0.5 	39.2709 	-0.546432 	-3.80356e-19
1.25 	-0.96875 	0.5 	39.2791 	-0.550035 	-2.3403e-19
1.26562 	-0.96875 	0.5 	39.2862 	-0.553328 	-3.7908e-19
1.28125 	-0.96875 	0.5 	39.2972 	-0.557026 	-2.36534e-19
1.29688 	-0.96875 	0.5 	39.3076 	-0.561006 	-3.49564e-20
1.3125 	-0.96875 	0.5 	39.3166 	-0.563785 	-2.32249e-19
1.32812 	-0.96875 	0.5 	39.3261 	-0.566912 	-1.22902e-19
1.34375 	-0.96875 	0.5 	39.3361 	-0.570128 	-7.71897e-20
1.35938 	-0.96875 	0.5 	39.3449 	-0.57234 	-8.50016e-20
1.375 	-0.96875 	0.5 	39.3534 	-0.5741 	1.75963e-19
1.39062 	-0.96875 	0.5 	39.3622 	-0.576186 	1.91304e-20
1.40625 	-0.96875 	0.5 	39.3705 	-0.57775 	-1.52538e-19
1.42188 	-0.96875 	0.5 	39.3793 	-0.580065 	-5.91317e-20
1.4375 	-0.96875 	0.5 	39.3875 	-0.581523 	-8.48281e-21
1.45312 	-0.96875 	0.5 	39.3963 	-0.582793 	-2.26499e-21
1.46875 	-0.96875 	0.5 	39.4055 	-0.583901 	-3.42586e-20
1.48438 	-0.96875 	0.5 	39.4145 	-0.585184 	8.32029e-21
-0.5 	-0.953125 	0.5 	39.2075 	0.479294 	8.58509e-20
-0.484375 	-0.953125 	0.5 	39.1961 	0.471081 	-3.1121e-19
-0.46875 	-0.953125 	0.5 	39.189 	0.471631 	-3.34295e-20
-0.453125 	-0.953125 	0.5 	39.1793 	0.465133 	-1.34103e-19
-0.4375 	-0.953125 	0.5 	39.1719 	0.458781 	-2.32662e-19
-0.421875 	-0.953125 	0.5 	39.1636 	0.45324 	-9.30712e-20
-0.40625 	-0.953125 	0.5 	39.1552 	0.447804 	1.70198e-19
-0.390625 	-0.953125 	0.5 	39.1475 	0.442213 	2.8196e-20
-0.375 	-0.953125 	0.5 	39.1396 	0.43589 	5.16664e-20
-0.359375 	-0.953125 	0.5 	39.1318 	0.429373 	-1.48558e-19
-0.34375 	-0.953125 	0.5 	39.1231 	0.423559 	-1.00065e-19
-0.328125 	-0.953125 	0.5 	39.115 	0.416033 	-4.87303e-22
-0.3125 	-0.953125 	0.5 	39.106 	0.409857 	1.6991e-21
-0.296875 	-0.953125 	0.5 	39.0972 	0.403428 	-2.16989e-21
-0.28125 	-0.953125 	0.5 	39.0895 	0.397362 	1.31521e-19
-0.265625 	-0.953125 	0.5 	39.0805 	0.387958 	8.61186e-20
-0.25 	-0.953125 	0.5 	39.0724 	0.379687 	8.96673e-20
-0.234375 	-0.953125 	0.5 	39.0627 	0.373074 	-2.43844e-19
-0.21875 	-0.953125 	0.5 	39.0557 	0.366355 	-2.7268e-19
-0.203125 	-0.953125 	0.5 	39.0498 	0.358379 	-1.513e-19
-0.1875 	-0.953125 	0.5 	39.042 	0.349458 	1.78088e-19
-0.171875 	-0.953125 	0.5 	39.0354 	0.339587 	1.26329e-19
-0.15625 	-0.953125 	0.5 	39.0288 	0.330751 	1.5517e-19
-0.140625 	-0.953125 	0.5 	39.0227 	0.32283 	9.10376e-20
-0.125 	-0.953125 	0.5 	39.0136 	0.310781 	8.22286e-20
-0.109375 	-0.953125 	0.5 	39.0058 	0.299819 	-2.03187e-20
-0.09375 	-0.953125 	0.5 	39.0007 	0.291417 	-1.60971e-19
-0.078125 	-0.953125 	0.5 	38.9956 	0.283015 	-3.01623e-19
-0.0625 	-0.953125 	0.5 	38.9891 	0.272944 	-6.76181e-20
-0.046875 	-0.953125 	0.5 	38.9857 	0.258578 	-6.96311e-20
-0.03125 	-0.953125 	0.5 	38.9809 	0.248433 	8.03405e-20
-0.015625 	-0.953125 	0.5 	38.9748 	0.239379 	-6.54044e-20
0 	-0.953125 	0.5 	38.9679 	0.23159 	-2.47424e-19
0.015625 	-0.953125 	0.5 	38.9616 	0.221208 	-5.90792e-20
0.03125 	-0.953125 	0.5 	38.9568 	0.208453 	6.27295e-20
0.046875 	-0.953125 	0.5 	38.9507 	0.199346 	-5.57765e-21
0.0625 	-0.953125 	0.5 	38.9474 	0.186631 	-2.05572e-20
0.078125 	-0.953125 	0.5 	38.9448 	0.173424 	6.26934e-23
0.09375 	-0.953125 	0.5 	38.9417 	0.1638 	3.76222e-21
0.109375 	-0.953125 	0.5 	38.9381 	0.151957 	4.4674e-21
0.125 	-0.953125 	0.5 	38.9336 	0.141731 	-7.05738e-22
0.140625 	-0.953125 	0.5 	38.9307 	0.129345 	9.07723e-21
0.15625 	-0.953125 	0.5 	38.925 	0.116745 	2.96702e-21
0.171875 	-0.953125 	0.5 	38.923 	0.106104 	-6.10054e-21
0.1875 	-0.953125 	0.5 	38.9212 	0.0931392 	2.12303e-21
0.203125 	-0.953125 	0.5 	38.9209 	0.0805481 	7.3432e-20
0.21875 	-0.953125 	0.5 	38.9178 	0.0688483 	-2.8406e-20
0.234375 	-0.953125 	0.5 	38.9163 	0.0571423 	3.55547e-20
0.25 	-0.953125 	0.5 	38.9138 	0.0441088 	7.16581e-20
0.265625 	-0.953125 	0.5 	38.9106 	0.0319989 	-1.67908e-20
0.28125 	-0.953125 	0.5 	38.9097 	0.0185696 	-1.20185e-20
0.296875 	-0.953125 	0.5 	38.9104 	0.00755998 	1.45659e-20
0.3125 	-0.953125 	0.5 	38.9108 	-0.00459229 	8.52053e-21
0.328125 	-0.953125 	0.5 	38.9104 	-0.018887 	-3.40509e-20
0.34375 	-0.953125 	0.5 	38.9099 	-0.0325116 	-7.62018e-20
0.359375 	-0.953125 	0.5 	38.9106 	-0.0465165 	-2.04967e-19
0.375 	-0.953125 	0.5 	38.9104 	-0.0576257 	-1.0911e-19
0.390625 	-0.953125 	0.5 	38.9103 	-0.0679003 	6.44597e-21
0.40625 	-0.953125 	0.5 	38.9116 	-0.0809413 	1.55172e-19
0.421875 	-0.953125 	0.5 	38.9131 	-0.0940379 	1.07994e-19
0.4375 	-0.953125 	0.5 	38.9146 	-0.107134 	6.08165e-20
0.453125 	-0.953125 	0.5 	38.9169 	-0.119754 	3.66448e-20
0.46875 	-0.953125 	0.5 	38.9197 	-0.132232 	1.05319e-20
0.484375 	-0.953125 	0.5 	38.9224 	-0.144711 	-1.5581e-20
0.5 	-0.953125 	0.5 	38.9248 	-0.156577 	-4.77994e-20
0.515625 	-0.953125 	0.5 	38.9276 	-0.1683 	-1.47399e-19
0.53125 	-0.953125 	0.5 	38.9307 	-0.180708 	-1.87265e-19
0.546875 	-0.953125 	0.5 	38.934 	-0.19331 	-1.60067e-19
0.5625 	-0.953125 	0.5 	38.9377 	-0.206096 	-4.67934e-20
0.578125 	-0.953125 	0.5 	38.9443 	-0.215397 	-2.34897e-19
0.59375 	-0.953125 	0.5 	38.9466 	-0.228821 	-7.17449e-20
0.609375 	-0.953125 	0.5 	38.9526 	-0.239523 	3.82984e-21
0.625 	-0.953125 	0.5 	38.9568 	-0.252069 	5.32417e-20
0.640625 	-0.953125 	0.5 	38.9618 	-0.264136 	1.12269e-19
0.65625 	-0.953125 	0.5 	38.9664 	-0.274946 	1.63819e-19
0.671875 	-0.953125 	0.5 	38.9715 	-0.285497 	-3.10508e-20
0.6875 	-0.953125 	0.5 	38.9778 	-0.296733 	-5.14104e-20
0.703125 	-0.953125 	0.5 	38.9834 	-0.307547 	-2.54271e-21
0.71875 	-0.953125 	0.5 	38.9901 	-0.317151 	-1.3099e-19
0.734375 	-0.953125 	0.5 	38.9971 	-0.328431 	-1.03255e-19
0.75 	-0.953125 	0.5 	39.0048 	-0.339924 	-5.87061e-21
0.765625 	-0.953125 	0.5 	39.0118 	-0.348957 	-2.74236e-20
0.78125 	-0.953125 	0.5 	39.0186 	-0.358423 	-1.54553e-20
0.796875 	-0.953125 	0.5 	39.0243 	-0.367396 	-1.93384e-21
0.8125 	-0.953125 	0.5 	39.031 	-0.37625 	-1.08127e-19
0.828125 	-0.953125 	0.5 	39.0379 	-0.383411 	-6.10122e-19
0.84375 	-0.953125 	0.5 	39.0452 	-0.392948 	-6.00578e-19
0.859375 	-0.953125 	0.5 	39.0528 	-0.404654 	-1.24179e-19
0.875 	-0.953125 	0.5 	39.0608 	-0.412278 	2.2858e-20
0.890625 	-0.953125 	0.5 	39.0692 	-0.422191 	6.35835e-21
0.90625 	-0.953125 	0.5 	39.0786 	-0.429632 	1.42693e-20
0.921875 	-0.953125 	0.5 	39.0873 	-0.435938 	-9.59918e-20
0.9375 	-0.953125 	0.5 	39.0959 	-0.443011 	-1.52305e-19
0.953125 	-0.953125 	0.5 	39.1027 	-0.451231 	-1.30614e-19
0.96875 	-0.953125 	0.5 	39.1087 	-0.460657 	-4.85024e-20
0.984375 	-0.953125 	0.5 	39.117 	-0.468801 	8.05254e-20
1 	-0.953125 	0.5 	39.1278 	-0.475281 	2.49444e-19
1.01562 	-0.953125 	0.5 	39.1364 	-0.484608 	9.14163e-20
1.03125 	-0.953125 	0.5 	39.1463 	-0.491602 	6.95959e-20
1.04688 	-0.953125 	0.5 	39.1549 	-0.496846 	4.40161e-20
1.0625 	-0.953125 	0.5 	39.1645 	-0.503848 	1.06577e-20
1.07812 	-0.953125 	0.5 	39.1708 	-0.507172 	-3.18684e-20
1.09375 	-0.953125 	0.5 	39.1816 	-0.511697 	-1.54797e-20
1.10938 	-0.953125 	0.5 	39.194 	-0.51679 	2.05282e-20
1.125 	-0.953125 	0.5 	39.2028 	-0.522033 	2.24695e-20
1.14062 	-0.953125 	0.5 	39.2112 	-0.527662 	1.41961e-20
1.15625 	-0.953125 	0.5 	39.2197 	-0.533428 	1.59842e-20
1.17188 	-0.953125 	0.5 	39.229 	-0.539949 	7.25918e-20
1.1875 	-0.953125 	0.5 	39.2397 	-0.543223 	5.19522e-19
1.20312 	-0.953125 	0.5 	39.2499 	-0.546844 	5.94251e-19
1.21875 	-0.953125 	0.5 	39.2588 	-0.552566 	1.67306e-20
1.23438 	-0.953125 	0.5 	39.2672 	-0.556237 	-2.06402e-19
1.25 	-0.953125 	0.5 	39.2741 	-0.559574 	-2.94155e-19
1.26562 	-0.953125 	0.5 	39.2845 	-0.563205 	-1.99072e-19
1.28125 	-0.953125 	0.5 	39.2942 	-0.566841 	-1.25659e-19
1.29688 	-0.953125 	0.5 	39.3028 	-0.570356 	-1.1247e-19
1.3125 	-0.953125 	0.5 	39.3132 	-0.572959 	-1.13376e-19
1.32812 	-0.953125 	0.5 	39.3234 	-0.576328 	-5.84178e-20
1.34375 	-0.953125 	0.5 	39.3337 	-0.579767 	-7.98437e-22
1.35938 	-0.953125 	0.5 	39.3418 	-0.581413 	-3.87873e-20
1.375 	-0.953125 	0.5 	39.3503 	-0.583173 	2.21771e-19
1.39062 	-0.953125 	0.5 	39.3591 	-0.585217 	2.24205e-19
1.40625 	-0.953125 	0.5 	39.368 	-0.587315 	1.89087e-20
1.42188 	-0.953125 	0.5 	39.377 	-0.588792 	-2.73637e-20
1.4375 	-0.953125 	0.5 	39.3857 	-0.59001 	-1.4135e-20
1.45312 	-0.953125 	0.5 	39.3945 	-0.591285 	-8.19685e-21
1.46875 	-0.953125 	0.5 	39.4032 	-0.592561 	-2.25871e-21
1.48438 	-0.953125 	0.5 	39.4124 	-0.593992 	-5.66317e-20
-0.5 	-0.9375 	0.5 	39.2013 	0.490283 	9.00798e-20
-0.484375 	-0.9375 	0.5 	39.1909 	0.48271 	-2.04397e-19
-0.46875 	-0.9375 	0.5 	39.182 	0.47848 	-1.80581e-19
-0.453125 	-0.9375 	0.5 	39.1727 	0.472775 	-2.33173e-19
-0.4375 	-0.9375 	0.5 	39.1651 	0.468155 	-2.24061e-19
-0.421875 	-0.9375 	0.5 	39.1572 	0.461742 	-2.03078e-19
-0.40625 	-0.9375 	0.5 	39.1487 	0.456489 	-2.44175e-20
-0.390625 	-0.9375 	0.5 	39.1397 	0.451137 	1.13686e-19
-0.375 	-0.9375 	0.5 	39.1317 	0.444205 	-7.04673e-20
-0.359375 	-0.9375 	0.5 	39.1239 	0.437682 	-2.78537e-19
-0.34375 	-0.9375 	0.5 	39.1147 	0.432258 	-8.93603e-20
-0.328125 	-0.9375 	0.5 	39.1071 	0.423969 	-1.52258e-20
-0.3125 	-0.9375 	0.5 	39.0986 	0.417129 	2.1461e-21
-0.296875 	-0.9375 	0.5 	39.0895 	0.410952 	4.53251e-21
-0.28125 	-0.9375 	0.5 	39.0812 	0.404143 	6.51909e-20
-0.265625 	-0.9375 	0.5 	39.0733 	0.396397 	9.89574e-20
-0.25 	-0.9375 	0.5 	39.0659 	0.390002 	2.06759e-19
-0.234375 	-0.9375 	0.5 	39.0551 	0.37912 	-8.43361e-20
-0.21875 	-0.9375 	0.5 	39.046 	0.375221 	-4.50185e-19
-0.203125 	-0.9375 	0.5 	39.042 	0.36467 	-2.12021e-20
-0.1875 	-0.9375 	0.5 	39.0308 	0.357444 	2.40246e-19
-0.171875 	-0.9375 	0.5 	39.0243 	0.34714 	1.09128e-19
-0.15625 	-0.9375 	0.5 	39.0177 	0.337735 	8.22336e-20
-0.140625 	-0.9375 	0.5 	39.0098 	0.32735 	4.95182e-20
-0.125 	-0.9375 	0.5 	39.0051 	0.318429 	1.88176e-19
-0.109375 	-0.9375 	0.5 	38.9969 	0.306509 	1.90509e-19
-0.09375 	-0.9375 	0.5 	38.9897 	0.296301 	3.56261e-20
-0.078125 	-0.9375 	0.5 	38.9859 	0.290772 	-4.71645e-19
-0.0625 	-0.9375 	0.5 	38.978 	0.280962 	-4.9649e-20
-0.046875 	-0.9375 	0.5 	38.9746 	0.267345 	-6.45159e-20
-0.03125 	-0.9375 	0.5 	38.9698 	0.253977 	-2.34836e-20
-0.015625 	-0.9375 	0.5 	38.963 	0.246088 	-2.49956e-19
0 	-0.9375 	0.5 	38.9562 	0.237982 	-2.7605e-20