-0.5 	-1 	0.5 	-0.82962
-0.484375 	-1 	0.5 	-0.852978
-0.46875 	-1 	0.5 	-0.883772
-0.453125 	-1 	0.5 	-0.916277
-0.4375 	-1 	0.5 	-0.954671
-0.421875 	-1 	0.5 	-1.08646
-0.40625 	-1 	0.5 	-1.05274
-0.390625 	-1 	0.5 	-1.08392
-0.375 	-1 	0.5 	-1.13857
-0.359375 	-1 	0.5 	-1.18916
-0.34375 	-1 	0.5 	-1.2475
-0.328125 	-1 	0.5 	-1.33664
-0.3125 	-1 	0.5 	-1.43074
-0.296875 	-1 	0.5 	-1.55067
-0.28125 	-1 	0.5 	-1.64145
-0.265625 	-1 	0.5 	-1.73653
-0.25 	-1 	0.5 	-1.84673
-0.234375 	-1 	0.5 	-1.98312
-0.21875 	-1 	0.5 	-2.11547
-0.203125 	-1 	0.5 	-2.2231
-0.1875 	-1 	0.5 	-2.35068
-0.171875 	-1 	0.5 	-2.51119
-0.15625 	-1 	0.5 	-2.68434
-0.140625 	-1 	0.5 	-2.84988
-0.125 	-1 	0.5 	-2.98834
-0.109375 	-1 	0.5 	-3.11662
-0.09375 	-1 	0.5 	-3.27443
-0.078125 	-1 	0.5 	-3.47894
-0.0625 	-1 	0.5 	-3.64977
-0.046875 	-1 	0.5 	-3.82145
-0.03125 	-1 	0.5 	-4.00482
-0.015625 	-1 	0.5 	-4.17297
0 	-1 	0.5 	-4.32261
0.015625 	-1 	0.5 	-4.55466
0.03125 	-1 	0.5 	-4.75836
0.046875 	-1 	0.5 	-4.96342
0.0625 	-1 	0.5 	-5.10732
0.078125 	-1 	0.5 	-5.28709
0.09375 	-1 	0.5 	-5.39981
0.109375 	-1 	0.5 	-5.58549
0.125 	-1 	0.5 	-5.77619
0.140625 	-1 	0.5 	-5.94951
0.15625 	-1 	0.5 	-6.10663
0.171875 	-1 	0.5 	-6.25866
0.1875 	-1 	0.5 	-6.41074
0.203125 	-1 	0.5 	-6.53423
0.21875 	-1 	0.5 	-6.66277
0.234375 	-1 	0.5 	-6.83476
0.25 	-1 	0.5 	-6.94318
0.265625 	-1 	0.5 	-7.0701
0.28125 	-1 	0.5 	-7.20523
0.296875 	-1 	0.5 	-7.28267
0.3125 	-1 	0.5 	-7.37615
0.328125 	-1 	0.5 	-7.47614
0.34375 	-1 	0.5 	-7.56014
0.359375 	-1 	0.5 	-7.63403
0.375 	-1 	0.5 	-7.70834
0.390625 	-1 	0.5 	-7.80744
0.40625 	-1 	0.5 	-7.85201
0.421875 	-1 	0.5 	-7.84466
0.4375 	-1 	0.5 	-7.85211
0.453125 	-1 	0.5 	-7.89728
0.46875 	-1 	0.5 	-7.9475
0.484375 	-1 	0.5 	-7.96683
0.5 	-1 	0.5 	-7.94851
0.515625 	-1 	0.5 	-7.92864
0.53125 	-1 	0.5 	-7.91396
0.546875 	-1 	0.5 	-7.89516
0.5625 	-1 	0.5 	-7.84544
0.578125 	-1 	0.5 	-7.79752
0.59375 	-1 	0.5 	-7.76065
0.609375 	-1 	0.5 	-7.71761
0.625 	-1 	0.5 	-7.66191
0.640625 	-1 	0.5 	-7.59062
0.65625 	-1 	0.5 	-7.51496
0.671875 	-1 	0.5 	-7.45894
0.6875 	-1 	0.5 	-7.37134
0.703125 	-1 	0.5 	-7.29606
0.71875 	-1 	0.5 	-7.21146
0.734375 	-1 	0.5 	-7.11902
0.75 	-1 	0.5 	-7.04268
0.765625 	-1 	0.5 	-6.93686
0.78125 	-1 	0.5 	-6.81397
0.796875 	-1 	0.5 	-6.71489
0.8125 	-1 	0.5 	-6.63644
0.828125 	-1 	0.5 	-6.56359
0.84375 	-1 	0.5 	-6.43196
0.859375 	-1 	0.5 	-6.32119
0.875 	-1 	0.5 	-6.21033
0.890625 	-1 	0.5 	-6.11287
0.90625 	-1 	0.5 	-6.02197
0.921875 	-1 	0.5 	-5.93925
0.9375 	-1 	0.5 	-5.83612
0.953125 	-1 	0.5 	-5.72472
0.96875 	-1 	0.5 	-5.62192
0.984375 	-1 	0.5 	-5.52667
1 	-1 	0.5 	-5.44417
1.01562 	-1 	0.5 	-5.35447
1.03125 	-1 	0.5 	-5.26822
1.04688 	-1 	0.5 	-5.18899
1.0625 	-1 	0.5 	-5.11974
1.07812 	-1 	0.5 	-5.04569
1.09375 	-1 	0.5 	-4.98065
1.10938 	-1 	0.5 	-4.89393
1.125 	-1 	0.5 	-4.84858
1.14062 	-1 	0.5 	-4.79389
1.15625 	-1 	0.5 	-4.73852
1.17188 	-1 	0.5 	-4.68367
1.1875 	-1 	0.5 	-4.65524
1.20312 	-1 	0.5 	-4.57296
1.21875 	-1 	0.5 	-4.54057
1.23438 	-1 	0.5 	-4.49693
1.25 	-1 	0.5 	-4.48999
1.26562 	-1 	0.5 	-4.48741
1.28125 	-1 	0.5 	-4.47788
1.29688 	-1 	0.5 	-4.45622
1.3125 	-1 	0.5 	-4.48238
1.32812 	-1 	0.5 	-4.47597
1.34375 	-1 	0.5 	-4.46903
1.35938 	-1 	0.5 	-4.50965
1.375 	-1 	0.5 	-4.54326
1.39062 	-1 	0.5 	-4.49384
1.40625 	-1 	0.5 	-4.54211
1.42188 	-1 	0.5 	-4.53793
1.4375 	-1 	0.5 	-4.5013
1.45312 	-1 	0.5 	-4.5719
1.46875 	-1 	0.5 	-4.60818
1.48438 	-1 	0.5 	-4.64669
-0.5 	-0.984375 	0.5 	-0.650315
-0.484375 	-0.984375 	0.5 	-0.673574
-0.46875 	-0.984375 	0.5 	-0.703162
-0.453125 	-0.984375 	0.5 	-0.737164
-0.4375 	-0.984375 	0.5 	-0.774933
-0.421875 	-0.984375 	0.5 	-0.844823
-0.40625 	-0.984375 	0.5 	-0.862131
-0.390625 	-0.984375 	0.5 	-0.902221
-0.375 	-0.984375 	0.5 	-0.95912
-0.359375 	-0.984375 	0.5 	-1.01538
-0.34375 	-0.984375 	0.5 	-1.06863
-0.328125 	-0.984375 	0.5 	-1.13437
-0.3125 	-0.984375 	0.5 	-1.25439
-0.296875 	-0.984375 	0.5 	-1.36948
-0.28125 	-0.984375 	0.5 	-1.48354
-0.265625 	-0.984375 	0.5 	-1.5786
-0.25 	-0.984375 	0.5 	-1.70828
-0.234375 	-0.984375 	0.5 	-1.84105
-0.21875 	-0.984375 	0.5 	-1.97382
-0.203125 	-0.984375 	0.5 	-2.10546
-0.1875 	-0.984375 	0.5 	-2.23387
-0.171875 	-0.984375 	0.5 	-2.38465
-0.15625 	-0.984375 	0.5 	-2.49703
-0.140625 	-0.984375 	0.5 	-2.6738
-0.125 	-0.984375 	0.5 	-2.86147
-0.109375 	-0.984375 	0.5 	-3.02556
-0.09375 	-0.984375 	0.5 	-3.19276
-0.078125 	-0.984375 	0.5 	-3.37953
-0.0625 	-0.984375 	0.5 	-3.59158
-0.046875 	-0.984375 	0.5 	-3.79988
-0.03125 	-0.984375 	0.5 	-3.96016
-0.015625 	-0.984375 	0.5 	-4.12414
0 	-0.984375 	0.5 	-4.31499
0.015625 	-0.984375 	0.5 	-4.52162
0.03125 	-0.984375 	0.5 	-4.7331
0.046875 	-0.984375 	0.5 	-4.92746
0.0625 	-0.984375 	0.5 	-5.09445
0.078125 	-0.984375 	0.5 	-5.27914
0.09375 	-0.984375 	0.5 	-5.44819
0.109375 	-0.984375 	0.5 	-5.62996
0.125 	-0.984375 	0.5 	-5.81728
0.140625 	-0.984375 	0.5 	-5.99602
0.15625 	-0.984375 	0.5 	-6.15254
0.171875 	-0.984375 	0.5 	-6.31287
0.1875 	-0.984375 	0.5 	-6.48735
0.203125 	-0.984375 	0.5 	-6.59929
0.21875 	-0.984375 	0.5 	-6.75737
0.234375 	-0.984375 	0.5 	-6.9146
0.25 	-0.984375 	0.5 	-7.05916
0.265625 	-0.984375 	0.5 	-7.19869
0.28125 	-0.984375 	0.5 	-7.32304
0.296875 	-0.984375 	0.5 	-7.41599
0.3125 	-0.984375 	0.5 	-7.50554
0.328125 	-0.984375 	0.5 	-7.58682
0.34375 	-0.984375 	0.5 	-7.71004
0.359375 	-0.984375 	0.5 	-7.78376
0.375 	-0.984375 	0.5 	-7.83196
0.390625 	-0.984375 	0.5 	-7.94055
0.40625 	-0.984375 	0.5 	-7.99006
0.421875 	-0.984375 	0.5 	-7.98687
0.4375 	-0.984375 	0.5 	-7.99724
0.453125 	-0.984375 	0.5 	-8.03376
0.46875 	-0.984375 	0.5 	-8.0674
0.484375 	-0.984375 	0.5 	-8.08419
0.5 	-0.984375 	0.5 	-8.0956
0.515625 	-0.984375 	0.5 	-8.06411
0.53125 	-0.984375 	0.5 	-8.0292
0.546875 	-0.984375 	0.5 	-7.98494
0.5625 	-0.984375 	0.5 	-7.95646
0.578125 	-0.984375 	0.5 	-7.95303
0.59375 	-0.984375 	0.5 	-7.88758
0.609375 	-0.984375 	0.5 	-7.81125
0.625 	-0.984375 	0.5 	-7.76529
0.640625 	-0.984375 	0.5 	-7.71363
0.65625 	-0.984375 	0.5 	-7.61199
0.671875 	-0.984375 	0.5 	-7.52127
0.6875 	-0.984375 	0.5 	-7.44187
0.703125 	-0.984375 	0.5 	-7.37228
0.71875 	-0.984375 	0.5 	-7.2808
0.734375 	-0.984375 	0.5 	-7.19615
0.75 	-0.984375 	0.5 	-7.09581
0.765625 	-0.984375 	0.5 	-6.98593
0.78125 	-0.984375 	0.5 	-6.86697
0.796875 	-0.984375 	0.5 	-6.74935
0.8125 	-0.984375 	0.5 	-6.6372
0.828125 	-0.984375 	0.5 	-6.5301
0.84375 	-0.984375 	0.5 	-6.423
0.859375 	-0.984375 	0.5 	-6.31816
0.875 	-0.984375 	0.5 	-6.21403
0.890625 	-0.984375 	0.5 	-6.11553
0.90625 	-0.984375 	0.5 	-6.0191
0.921875 	-0.984375 	0.5 	-5.92156
0.9375 	-0.984375 	0.5 	-5.78472
0.953125 	-0.984375 	0.5 	-5.68457
0.96875 	-0.984375 	0.5 	-5.57817
0.984375 	-0.984375 	0.5 	-5.47842
1 	-0.984375 	0.5 	-5.39147
1.01562 	-0.984375 	0.5 	-5.30387
1.03125 	-0.984375 	0.5 	-5.20237
1.04688 	-0.984375 	0.5 	-5.09839
1.0625 	-0.984375 	0.5 	-5.03135
1.07812 	-0.984375 	0.5 	-4.96613
1.09375 	-0.984375 	0.5 	-4.91025
1.10938 	-0.984375 	0.5 	-4.84921
1.125 	-0.984375 	0.5 	-4.75678
1.14062 	-0.984375 	0.5 	-4.70252
1.15625 	-0.984375 	0.5 	-4.64735
1.17188 	-0.984375 	0.5 	-4.59245
1.1875 	-0.984375 	0.5 	-4.54035
1.20312 	-0.984375 	0.5 	-4.47997
1.21875 	-0.984375 	0.5 	-4.43599
1.23438 	-0.984375 	0.5 	-4.39848
1.25 	-0.984375 	0.5 	-4.39095
1.26562 	-0.984375 	0.5 	-4.38476
1.28125 	-0.984375 	0.5 	-4.3484
1.29688 	-0.984375 	0.5 	-4.33655
1.3125 	-0.984375 	0.5 	-4.36848
1.32812 	-0.984375 	0.5 	-4.36507
1.34375 	-0.984375 	0.5 	-4.36558
1.35938 	-0.984375 	0.5 	-4.38626
1.375 	-0.984375 	0.5 	-4.41029
1.39062 	-0.984375 	0.5 	-4.40919
1.40625 	-0.984375 	0.5 	-4.42099
1.42188 	-0.984375 	0.5 	-4.39562
1.4375 	-0.984375 	0.5 	-4.40664
1.45312 	-0.984375 	0.5 	-4.45236
1.46875 	-0.984375 	0.5 	-4.49808
1.48438 	-0.984375 	0.5 	-4.55117
-0.5 	-0.96875 	0.5 	-0.477879
-0.484375 	-0.96875 	0.5 	-0.482046
-0.46875 	-0.96875 	0.5 	-0.513217
-0.453125 	-0.96875 	0.5 	-0.554804
-0.4375 	-0.96875 	0.5 	-0.575754
-0.421875 	-0.96875 	0.5 	-0.592555
-0.40625 	-0.96875 	0.5 	-0.639599
-0.390625 	-0.96875 	0.5 	-0.706792
-0.375 	-0.96875 	0.5 	-0.764164
-0.359375 	-0.96875 	0.5 	-0.819993
-0.34375 	-0.96875 	0.5 	-0.880863
-0.328125 	-0.96875 	0.5 	-0.958921
-0.3125 	-0.96875 	0.5 	-1.0762
-0.296875 	-0.96875 	0.5 	-1.20334
-0.28125 	-0.96875 	0.5 	-1.29628
-0.265625 	-0.96875 	0.5 	-1.45192
-0.25 	-0.96875 	0.5 	-1.53242
-0.234375 	-0.96875 	0.5 	-1.65803
-0.21875 	-0.96875 	0.5 	-1.83462
-0.203125 	-0.96875 	0.5 	-1.99949
-0.1875 	-0.96875 	0.5 	-2.1258
-0.171875 	-0.96875 	0.5 	-2.25757
-0.15625 	-0.96875 	0.5 	-2.40478
-0.140625 	-0.96875 	0.5 	-2.56386
-0.125 	-0.96875 	0.5 	-2.7438
-0.109375 	-0.96875 	0.5 	-2.94461
-0.09375 	-0.96875 	0.5 	-3.11702
-0.078125 	-0.96875 	0.5 	-3.29677
-0.0625 	-0.96875 	0.5 	-3.51318
-0.046875 	-0.96875 	0.5 	-3.72026
-0.03125 	-0.96875 	0.5 	-3.90196
-0.015625 	-0.96875 	0.5 	-4.08604
0 	-0.96875 	0.5 	-4.2647
0.015625 	-0.96875 	0.5 	-4.4778
0.03125 	-0.96875 	0.5 	-4.68249
0.046875 	-0.96875 	0.5 	-4.89141
0.0625 	-0.96875 	0.5 	-5.07714
0.078125 	-0.96875 	0.5 	-5.25028
0.09375 	-0.96875 	0.5 	-5.44175
0.109375 	-0.96875 	0.5 	-5.66266
0.125 	-0.96875 	0.5 	-5.85287
0.140625 	-0.96875 	0.5 	-6.04334
0.15625 	-0.96875 	0.5 	-6.22721
0.171875 	-0.96875 	0.5 	-6.40475
0.1875 	-0.96875 	0.5 	-6.57534
0.203125 	-0.96875 	0.5 	-6.70184
0.21875 	-0.96875 	0.5 	-6.83448
0.234375 	-0.96875 	0.5 	-7.02034
0.25 	-0.96875 	0.5 	-7.15424
0.265625 	-0.96875 	0.5 	-7.30873
0.28125 	-0.96875 	0.5 	-7.42439
0.296875 	-0.96875 	0.5 	-7.5131
0.3125 	-0.96875 	0.5 	-7.6441
0.328125 	-0.96875 	0.5 	-7.75042
0.34375 	-0.96875 	0.5 	-7.85662
0.359375 	-0.96875 	0.5 	-7.92052
0.375 	-0.96875 	0.5 	-7.97743
0.390625 	-0.96875 	0.5 	-8.03451
0.40625 	-0.96875 	0.5 	-8.08607
0.421875 	-0.96875 	0.5 	-8.10738
0.4375 	-0.96875 	0.5 	-8.15825
0.453125 	-0.96875 	0.5 	-8.18088
0.46875 	-0.96875 	0.5 	-8.20351
0.484375 	-0.96875 	0.5 	-8.20176
0.5 	-0.96875 	0.5 	-8.1793
0.515625 	-0.96875 	0.5 	-8.16148
0.53125 	-0.96875 	0.5 	-8.1485
0.546875 	-0.96875 	0.5 	-8.11867
0.5625 	-0.96875 	0.5 	-8.07621
0.578125 	-0.96875 	0.5 	-8.04937
0.59375 	-0.96875 	0.5 	-8.02281
0.609375 	-0.96875 	0.5 	-7.94435
0.625 	-0.96875 	0.5 	-7.86825
0.640625 	-0.96875 	0.5 	-7.79477
0.65625 	-0.96875 	0.5 	-7.71069
0.671875 	-0.96875 	0.5 	-7.58343
0.6875 	-0.96875 	0.5 	-7.49833
0.703125 	-0.96875 	0.5 	-7.42079
0.71875 	-0.96875 	0.5 	-7.34963
0.734375 	-0.96875 	0.5 	-7.22975
0.75 	-0.96875 	0.5 	-7.14823
0.765625 	-0.96875 	0.5 	-7.01338
0.78125 	-0.96875 	0.5 	-6.90463
0.796875 	-0.96875 	0.5 	-6.74579
0.8125 	-0.96875 	0.5 	-6.63752
0.828125 	-0.96875 	0.5 	-6.5486
0.84375 	-0.96875 	0.5 	-6.43529
0.859375 	-0.96875 	0.5 	-6.35647
0.875 	-0.96875 	0.5 	-6.23518
0.890625 	-0.96875 	0.5 	-6.10482
0.90625 	-0.96875 	0.5 	-5.97142
0.921875 	-0.96875 	0.5 	-5.88311
0.9375 	-0.96875 	0.5 	-5.75998
0.953125 	-0.96875 	0.5 	-5.64545
0.96875 	-0.96875 	0.5 	-5.54063
0.984375 	-0.96875 	0.5 	-5.43508
1 	-0.96875 	0.5 	-5.32973
1.01562 	-0.96875 	0.5 	-5.22752
1.03125 	-0.96875 	0.5 	-5.13341
1.04688 	-0.96875 	0.5 	-5.02425
1.0625 	-0.96875 	0.5 	-4.97409
1.07812 	-0.96875 	0.5 	-4.87533
1.09375 	-0.96875 	0.5 	-4.81443
1.10938 	-0.96875 	0.5 	-4.74164
1.125 	-0.96875 	0.5 	-4.66872
1.14062 	-0.96875 	0.5 	-4.6115
1.15625 	-0.96875 	0.5 	-4.55488
1.17188 	-0.96875 	0.5 	-4.49819
1.1875 	-0.96875 	0.5 	-4.4415
1.20312 	-0.96875 	0.5 	-4.40881
1.21875 	-0.96875 	0.5 	-4.37944
1.23438 	-0.96875 	0.5 	-4.34953
1.25 	-0.96875 	0.5 	-4.30658
1.26562 	-0.96875 	0.5 	-4.25741
1.28125 	-0.96875 	0.5 	-4.24114
1.29688 	-0.96875 	0.5 	-4.21689
1.3125 	-0.96875 	0.5 	-4.22623
1.32812 	-0.96875 	0.5 	-4.24458
1.34375 	-0.96875 	0.5 	-4.23381
1.35938 	-0.96875 	0.5 	-4.24981
1.375 	-0.96875 	0.5 	-4.26933
1.39062 	-0.96875 	0.5 	-4.28922
1.40625 	-0.96875 	0.5 	-4.29385
1.42188 	-0.96875 	0.5 	-4.32925
1.4375 	-0.96875 	0.5 	-4.35318
1.45312 	-0.96875 	0.5 	-4.37712
1.46875 	-0.96875 	0.5 	-4.39841
1.48438 	-0.96875 	0.5 	-4.44423
-0.5 	-0.953125 	0.5 	-0.287137
-0.484375 	-0.953125 	0.5 	-0.291736
-0.46875 	-0.953125 	0.5 	-0.30906
-0.453125 	-0.953125 	0.5 	-0.342057
-0.4375 	-0.953125 	0.5 	-0.354561
-0.421875 	-0.953125 	0.5 	-0.387962
-0.40625 	-0.953125 	0.5 	-0.443236
-0.390625 	-0.953125 	0.5 	-0.511364
-0.375 	-0.953125 	0.5 	-0.573325
-0.359375 	-0.953125 	0.5 	-0.634909
-0.34375 	-0.953125 	0.5 	-0.704381
-0.328125 	-0.953125 	0.5 	-0.798653
-0.3125 	-0.953125 	0.5 	-0.894549
-0.296875 	-0.953125 	0.5 	-1.00539
-0.28125 	-0.953125 	0.5 	-1.17777
-0.265625 	-0.953125 	0.5 	-1.26502
-0.25 	-0.953125 	0.5 	-1.41287
-0.234375 	-0.953125 	0.5 	-1.48775
-0.21875 	-0.953125 	0.5 	-1.71544
-0.203125 	-0.953125 	0.5 	-1.81176
-0.1875 	-0.953125 	0.5 	-1.98614
-0.171875 	-0.953125 	0.5 	-2.11307
-0.15625 	-0.953125 	0.5 	-2.29226
-0.140625 	-0.953125 	0.5 	-2.46577
-0.125 	-0.953125 	0.5 	-2.63485
-0.109375 	-0.953125 	0.5 	-2.83443
-0.09375 	-0.953125 	0.5 	-3.01226
-0.078125 	-0.953125 	0.5 	-3.21246
-0.0625 	-0.953125 	0.5 	-3.4177
-0.046875 	-0.953125 	0.5 	-3.62969
-0.03125 	-0.953125 	0.5 	-3.85334
-0.015625 	-0.953125 	0.5 	-4.05362
0 	-0.953125 	0.5 	-4.21183
0.015625 	-0.953125 	0.5 	-4.46168
0.03125 	-0.953125 	0.5 	-4.65713
0.046875 	-0.953125 	0.5 	-4.86082
0.0625 	-0.953125 	0.5 	-5.08042
0.078125 	-0.953125 	0.5 	-5.28812
0.09375 	-0.953125 	0.5 	-5.47499
0.109375 	-0.953125 	0.5 	-5.69021
0.125 	-0.953125 	0.5 	-5.89524
0.140625 	-0.953125 	0.5 	-6.10231
0.15625 	-0.953125 	0.5 	-6.2744
0.171875 	-0.953125 	0.5 	-6.49326
0.1875 	-0.953125 	0.5 	-6.6528
0.203125 	-0.953125 	0.5 	-6.78104
0.21875 	-0.953125 	0.5 	-6.94336
0.234375 	-0.953125 	0.5 	-7.12061
0.25 	-0.953125 	0.5 	-7.26977
0.265625 	-0.953125 	0.5 	-7.43641
0.28125 	-0.953125 	0.5 	-7.54879
0.296875 	-0.953125 	0.5 	-7.62846
0.3125 	-0.953125 	0.5 	-7.77246
0.328125 	-0.953125 	0.5 	-7.88499
0.34375 	-0.953125 	0.5 	-7.9885
0.359375 	-0.953125 	0.5 	-8.05571
0.375 	-0.953125 	0.5 	-8.07871
0.390625 	-0.953125 	0.5 	-8.17449
0.40625 	-0.953125 	0.5 	-8.22484
0.421875 	-0.953125 	0.5 	-8.24537
0.4375 	-0.953125 	0.5 	-8.3168
0.453125 	-0.953125 	0.5 	-8.33593
0.46875 	-0.953125 	0.5 	-8.38031
0.484375 	-0.953125 	0.5 	-8.34859
0.5 	-0.953125 	0.5 	-8.28622
0.515625 	-0.953125 	0.5 	-8.28865
0.53125 	-0.953125 	0.5 	-8.26947
0.546875 	-0.953125 	0.5 	-8.24892
0.5625 	-0.953125 	0.5 	-8.23002
0.578125 	-0.953125 	0.5 	-8.16002
0.59375 	-0.953125 	0.5 	-8.09259
0.609375 	-0.953125 	0.5 	-8.03952
0.625 	-0.953125 	0.5 	-7.96455
0.640625 	-0.953125 	0.5 	-7.86798
0.65625 	-0.953125 	0.5 	-7.79412
0.671875 	-0.953125 	0.5 	-7.67962
0.6875 	-0.953125 	0.5 	-7.5929
0.703125 	-0.953125 	0.5 	-7.51836
0.71875 	-0.953125 	0.5 	-7.42419
0.734375 	-0.953125 	0.5 	-7.31042
0.75 	-0.953125 	0.5 	-7.19242
0.765625 	-0.953125 	0.5 	-7.08047
0.78125 	-0.953125 	0.5 	-6.95149
0.796875 	-0.953125 	0.5 	-6.79421
0.8125 	-0.953125 	0.5 	-6.66765
0.828125 	-0.953125 	0.5 	-6.54716
0.84375 	-0.953125 	0.5 	-6.45121
0.859375 	-0.953125 	0.5 	-6.34296
0.875 	-0.953125 	0.5 	-6.2106
0.890625 	-0.953125 	0.5 	-6.08095
0.90625 	-0.953125 	0.5 	-5.94307
0.921875 	-0.953125 	0.5 	-5.83853
0.9375 	-0.953125 	0.5 	-5.72331
0.953125 	-0.953125 	0.5 	-5.59654
0.96875 	-0.953125 	0.5 	-5.4821
0.984375 	-0.953125 	0.5 	-5.37151
1 	-0.953125 	0.5 	-5.27726
1.01562 	-0.953125 	0.5 	-5.16583
1.03125 	-0.953125 	0.5 	-5.06445
1.04688 	-0.953125 	0.5 	-4.9762
1.0625 	-0.953125 	0.5 	-4.87197
1.07812 	-0.953125 	0.5 	-4.77709
1.09375 	-0.953125 	0.5 	-4.70876
1.10938 	-0.953125 	0.5 	-4.62797
1.125 	-0.953125 	0.5 	-4.56555
1.14062 	-0.953125 	0.5 	-4.49533
1.15625 	-0.953125 	0.5 	-4.43446
1.17188 	-0.953125 	0.5 	-4.37987
1.1875 	-0.953125 	0.5 	-4.32125
1.20312 	-0.953125 	0.5 	-4.30599
1.21875 	-0.953125 	0.5 	-4.25079
1.23438 	-0.953125 	0.5 	-4.26755
1.25 	-0.953125 	0.5 	-4.17162
1.26562 	-0.953125 	0.5 	-4.07683
1.28125 	-0.953125 	0.5 	-4.09535
1.29688 	-0.953125 	0.5 	-4.09406
1.3125 	-0.953125 	0.5 	-4.09517
1.32812 	-0.953125 	0.5 	-4.10308
1.34375 	-0.953125 	0.5 	-4.10317
1.35938 	-0.953125 	0.5 	-4.11984
1.375 	-0.953125 	0.5 	-4.13539
1.39062 	-0.953125 	0.5 	-4.15126
1.40625 	-0.953125 	0.5 	-4.18286
1.42188 	-0.953125 	0.5 	-4.21641
1.4375 	-0.953125 	0.5 	-4.2392
1.45312 	-0.953125 	0.5 	-4.26384
1.46875 	-0.953125 	0.5 	-4.28325
1.48438 	-0.953125 	0.5 	-4.33713
-0.5 	-0.9375 	0.5 	-0.0552759
-0.484375 	-0.9375 	0.5 	-0.0832751
-0.46875 	-0.9375 	0.5 	-0.111274
-0.453125 	-0.9375 	0.5 	-0.133897
-0.4375 	-0.9375 	0.5 	-0.156635
-0.421875 	-0.9375 	0.5 	-0.18065
-0.40625 	-0.9375 	0.5 	-0.252841
-0.390625 	-0.9375 	0.5 	-0.322535
-0.375 	-0.9375 	0.5 	-0.389842
-0.359375 	-0.9375 	0.5 	-0.455428
-0.34375 	-0.9375 	0.5 	-0.521806
-0.328125 	-0.9375 	0.5 	-0.62877
-0.3125 	-0.9375 	0.5 	-0.710323
-0.296875 	-0.9375 	0.5 	-0.806694
-0.28125 	-0.9375 	0.5 	-0.937092
-0.265625 	-0.9375 	0.5 	-1.07362
-0.25 	-0.9375 	0.5 	-1.18084
-0.234375 	-0.9375 	0.5 	-1.30183
-0.21875 	-0.9375 	0.5 	-1.46019
-0.203125 	-0.9375 	0.5 	-1.63322
-0.1875 	-0.9375 	0.5 	-1.78104
-0.171875 	-0.9375 	0.5 	-1.9344
-0.15625 	-0.9375 	0.5 	-2.1034
-0.140625 	-0.9375 	0.5 	-2.30043
-0.125 	-0.9375 	0.5 	-2.52127
-0.109375 	-0.9375 	0.5 	-2.73687
-0.09375 	-0.9375 	0.5 	-2.91555
-0.078125 	-0.9375 	0.5 	-3.11775
-0.0625 	-0.9375 	0.5 	-3.33061
-0.046875 	-0.9375 	0.5 	-3.55443
-0.03125 	-0.9375 	0.5 	-3.77984
-0.015625 	-0.9375 	0.5 	-4.02063
0 	-0.9375 	0.5 	-4.24085
0.015625 	-0.9375 	0.5 	-4.44033
0.03125 	-0.9375 	0.5 	-4.64873
0.046875 	-0.9375 	0.5 	-4.85286
0.0625 	-0.9375 	0.5 	-5.06765
0.078125 	-0.9375 	0.5 	-5.28381
0.09375 	-0.9375 	0.5 	-5.50002
0.109375 	-0.9375 	0.5 	-5.7295
0.125 	-0.9375 	0.5 	-5.94267
0.140625 	-0.9375 	0.5 	-6.15966
0.15625 	-0.9375 	0.5 	-6.35944
0.171875 	-0.9375 	0.5 	-6.57794
0.1875 	-0.9375 	0.5 	-6.73402
0.203125 	-0.9375 	0.5 	-6.85266
0.21875 	-0.9375 	0.5 	-7.05885
0.234375 	-0.9375 	0.5 	-7.22218
0.25 	-0.9375 	0.5 	-7.40681
0.265625 	-0.9375 	0.5 	-7.55438
0.28125 	-0.9375 	0.5 	-7.6869
0.296875 	-0.9375 	0.5 	-7.78593
0.3125 	-0.9375 	0.5 	-7.90201
0.328125 	-0.9375 	0.5 	-8.03422
0.34375 	-0.9375 	0.5 	-8.12034
0.359375 	-0.9375 	0.5 	-8.19533
0.375 	-0.9375 	0.5 	-8.25539
0.390625 	-0.9375 	0.5 	-8.32025
0.40625 	-0.9375 	0.5 	-8.37924
0.421875 	-0.9375 	0.5 	-8.41277
0.4375 	-0.9375 	0.5 	-8.45189
0.453125 	-0.9375 	0.5 	-8.51046
0.46875 	-0.9375 	0.5 	-8.53196
0.484375 	-0.9375 	0.5 	-8.49753
0.5 	-0.9375 	0.5 	-8.46359
0.515625 	-0.9375 	0.5 	-8.44786
0.53125 	-0.9375 	0.5 	-8.43311
0.546875 	-0.9375 	0.5 	-8.42782
0.5625 	-0.9375 	0.5 	-8.37287
0.578125 	-0.9375 	0.5 	-8.22588
0.59375 	-0.9375 	0.5 	-8.2324
0.609375 	-0.9375 	0.5 	-8.15938
0.625 	-0.9375 	0.5 	-8.05346
0.640625 	-0.9375 	0.5 	-7.96951
0.65625 	-0.9375 	0.5 	-7.90159
0.671875 	-0.9375 	0.5 	-7.80441
0.6875 	-0.9375 	0.5 	-7.69597
0.703125 	-0.9375 	0.5 	-7.57933
0.71875 	-0.9375 	0.5 	-7.48287
0.734375 	-0.9375 	0.5 	-7.36989
0.75 	-0.9375 	0.5 	-7.21963
0.765625 	-0.9375 	0.5 	-7.11696
0.78125 	-0.9375 	0.5 	-6.98981
0.796875 	-0.9375 	0.5 	-6.8492
0.8125 	-0.9375 	0.5 	-6.70702
0.828125 	-0.9375 	0.5 	-6.57746
0.84375 	-0.9375 	0.5 	-6.45296
0.859375 	-0.9375 	0.5 	-6.31012
0.875 	-0.9375 	0.5 	-6.17191
0.890625 	-0.9375 	0.5 	-6.04154
0.90625 	-0.9375 	0.5 	-5.91264
0.921875 	-0.9375 	0.5 	-5.80367
0.9375 	-0.9375 	0.5 	-5.69107
0.953125 	-0.9375 	0.5 	-5.56296
0.96875 	-0.9375 	0.5 	-5.41306
0.984375 	-0.9375 	0.5 	-5.31158
1 	-0.9375 	0.5 	-5.20367
1.01562 	-0.9375 	0.5 	-5.10188
1.03125 	-0.9375 	0.5 	-4.99441
1.04688 	-0.9375 	0.5 	-4.87895
1.0625 	-0.9375 	0.5 	-4.77931
1.07812 	-0.9375 	0.5 	-4.6819
1.09375 	-0.9375 	0.5 	-4.5985
1.10938 	-0.9375 	0.5 	-4.5146
1.125 	-0.9375 	0.5 	-4.46187
1.14062 	-0.9375 	0.5 	-4.39074
1.15625 	-0.9375 	0.5 	-4.32221
1.17188 	-0.9375 	0.5 	-4.26783
1.1875 	-0.9375 	0.5 	-4.1922
1.20312 	-0.9375 	0.5 	-4.17738
1.21875 	-0.9375 	0.5 	-4.17726
1.23438 	-0.9375 	0.5 	-4.09277
1.25 	-0.9375 	0.5 	-4.0368
1.26562 	-0.9375 	0.5 	-4.01512
1.28125 	-0.9375 	0.5 	-3.98308
1.29688 	-0.9375 	0.5 	-3.97234
1.3125 	-0.9375 	0.5 	-3.96989
1.32812 	-0.9375 	0.5 	-3.97196
1.34375 	-0.9375 	0.5 	-3.96936
1.35938 	-0.9375 	0.5 	-3.9777
1.375 	-0.9375 	0.5 	-3.98945
1.39062 	-0.9375 	0.5 	-4.03403
1.40625 	-0.9375 	0.5 	-4.04455
1.42188 	-0.9375 	0.5 	-4.15323
1.4375 	-0.9375 	0.5 	-4.15966
1.45312 	-0.9375 	0.5 	-4.14586
1.46875 	-0.9375 	0.5 	-4.16809
1.48438 	-0.9375 	0.5 	-4.22322
-0.5 	-0.921875 	0.5 	0.170216
-0.484375 	-0.921875 	0.5 	0.118092
-0.46875 	-0.921875 	0.5 	0.107791
-0.453125 	-0.921875 	0.5 	0.105823
-0.4375 	-0.921875 	0.5 	0.0808063
-0.421875 	-0.921875 	0.5 	0.0609262
-0.40625 	-0.921875 	0.5 	-0.0498051
-0.390625 	-0.921875 	0.5 	-0.103162
-0.375 	-0.921875 	0.5 	-0.15407
-0.359375 	-0.921875 	0.5 	-0.294971
-0.34375 	-0.921875 	0.5 	-0.3393
-0.328125 	-0.921875 	0.5 	-0.396424
-0.3125 	-0.921875 	0.5 	-0.456007
-0.296875 	-0.921875 	0.5 	-0.573411
-0.28125 	-0.921875 	0.5 	-0.698989
-0.265625 	-0.921875 	0.5 	-0.851761
-0.25 	-0.921875 	0.5 	-1.01646
-0.234375 	-0.921875 	0.5 	-1.11699
-0.21875 	-0.921875 	0.5 	-1.26951
-0.203125 	-0.921875 	0.5 	-1.45702
-0.1875 	-0.921875 	0.5 	-1.61701
-0.171875 	-0.921875 	0.5 	-1.77463
-0.15625 	-0.921875 	0.5 	-1.94414
-0.140625 	-0.921875 	0.5 	-2.17757
-0.125 	-0.921875 	0.5 	-2.40282
-0.109375 	-0.921875 	0.5 	-2.60301
-0.09375 	-0.921875 	0.5 	-2.81456
-0.078125 	-0.921875 	0.5 	-3.03657
-0.0625 	-0.921875 	0.5 	-3.2563
-0.046875 	-0.921875 	0.5 	-3.48181
-0.03125 	-0.921875 	0.5 	-3.70732
-0.015625 	-0.921875 	0.5 	-3.93459
0 	-0.921875 	0.5 	-4.15587
0.015625 	-0.921875 	0.5 	-4.37894
0.03125 	-0.921875 	0.5 	-4.63942
0.046875 	-0.921875 	0.5 	-4.82605
0.0625 	-0.921875 	0.5 	-5.06826
0.078125 	-0.921875 	0.5 	-5.33131
0.09375 	-0.921875 	0.5 	-5.57089
0.109375 	-0.921875 	0.5 	-5.78469
0.125 	-0.921875 	0.5 	-5.99493
0.140625 	-0.921875 	0.5 	-6.20426
0.15625 	-0.921875 	0.5 	-6.46723
0.171875 	-0.921875 	0.5 	-6.65388
0.1875 	-0.921875 	0.5 	-6.83248
0.203125 	-0.921875 	0.5 	-6.96362
0.21875 	-0.921875 	0.5 	-7.15336
0.234375 	-0.921875 	0.5 	-7.33447
0.25 	-0.921875 	0.5 	-7.5155
0.265625 	-0.921875 	0.5 	-7.67705
0.28125 	-0.921875 	0.5 	-7.80072
0.296875 	-0.921875 	0.5 	-7.93251
0.3125 	-0.921875 	0.5 	-8.08021
0.328125 	-0.921875 	0.5 	-8.15795
0.34375 	-0.921875 	0.5 	-8.24288
0.359375 	-0.921875 	0.5 	-8.33345
0.375 	-0.921875 	0.5 	-8.43664
0.390625 	-0.921875 	0.5 	-8.50044
0.40625 	-0.921875 	0.5 	-8.55414
0.421875 	-0.921875 	0.5 	-8.59692
0.4375 	-0.921875 	0.5 	-8.64383
0.453125 	-0.921875 	0.5 	-8.66761
0.46875 	-0.921875 	0.5 	-8.68361
0.484375 	-0.921875 	0.5 	-8.64906
0.5 	-0.921875 	0.5 	-8.63252
0.515625 	-0.921875 	0.5 	-8.63344
0.53125 	-0.921875 	0.5 	-8.59815
0.546875 	-0.921875 	0.5 	-8.56237
0.5625 	-0.921875 	0.5 	-8.52453
0.578125 	-0.921875 	0.5 	-8.4581
0.59375 	-0.921875 	0.5 	-8.37032
0.609375 	-0.921875 	0.5 	-8.28751
0.625 	-0.921875 	0.5 	-8.19346
0.640625 	-0.921875 	0.5 	-8.10047
0.65625 	-0.921875 	0.5 	-8.01118
0.671875 	-0.921875 	0.5 	-7.90922
0.6875 	-0.921875 	0.5 	-7.80249
0.703125 	-0.921875 	0.5 	-7.65553
0.71875 	-0.921875 	0.5 	-7.55377
0.734375 	-0.921875 	0.5 	-7.41272
0.75 	-0.921875 	0.5 	-7.29122
0.765625 	-0.921875 	0.5 	-7.1735
0.78125 	-0.921875 	0.5 	-7.0202
0.796875 	-0.921875 	0.5 	-6.88398
0.8125 	-0.921875 	0.5 	-6.72843
0.828125 	-0.921875 	0.5 	-6.58692
0.84375 	-0.921875 	0.5 	-6.46572
0.859375 	-0.921875 	0.5 	-6.31678
0.875 	-0.921875 	0.5 	-6.18546
0.890625 	-0.921875 	0.5 	-6.00487
0.90625 	-0.921875 	0.5 	-5.8855
0.921875 	-0.921875 	0.5 	-5.74268
0.9375 	-0.921875 	0.5 	-5.64058
0.953125 	-0.921875 	0.5 	-5.487
0.96875 	-0.921875 	0.5 	-5.35517
0.984375 	-0.921875 	0.5 	-5.23317
1 	-0.921875 	0.5 	-5.13869
1.01562 	-0.921875 	0.5 	-5.0133
1.03125 	-0.921875 	0.5 	-4.92361
1.04688 	-0.921875 	0.5 	-4.78413
1.0625 	-0.921875 	0.5 	-4.68333
1.07812 	-0.921875 	0.5 	-4.58204
1.09375 	-0.921875 	0.5 	-4.49691
1.10938 	-0.921875 	0.5 	-4.42759
1.125 	-0.921875 	0.5 	-4.35771
1.14062 	-0.921875 	0.5 	-4.28521
1.15625 	-0.921875 	0.5 	-4.21271
1.17188 	-0.921875 	0.5 	-4.14713
1.1875 	-0.921875 	0.5 	-4.08526
1.20312 	-0.921875 	0.5 	-4.04877
1.21875 	-0.921875 	0.5 	-4.01695
1.23438 	-0.921875 	0.5 	-3.96558
1.25 	-0.921875 	0.5 	-3.91939
1.26562 	-0.921875 	0.5 	-3.88958
1.28125 	-0.921875 	0.5 	-3.85976
1.29688 	-0.921875 	0.5 	-3.85062
1.3125 	-0.921875 	0.5 	-3.85104
1.32812 	-0.921875 	0.5 	-3.84973
1.34375 	-0.921875 	0.5 	-3.83749
1.35938 	-0.921875 	0.5 	-3.86281
1.375 	-0.921875 	0.5 	-3.88054
1.39062 	-0.921875 	0.5 	-3.90633
1.40625 	-0.921875 	0.5 	-3.91485
1.42188 	-0.921875 	0.5 	-3.98988
1.4375 	-0.921875 	0.5 	-4.00692
1.45312 	-0.921875 	0.5 	-4.01595
1.46875 	-0.921875 	0.5 	-4.0449
1.48438 	-0.921875 	0.5 	-4.10305
-0.5 	-0.90625 	0.5 	0.34773
-0.484375 	-0.90625 	0.5 	0.335895
-0.46875 	-0.90625 	0.5 	0.328135
-0.453125 	-0.90625 	0.5 	0.324436
-0.4375 	-0.90625 	0.5 	0.301097
-0.421875 	-0.90625 	0.5 	0.279483
-0.40625 	-0.90625 	0.5 	0.186424
-0.390625 	-0.90625 	0.5 	0.0512695
-0.375 	-0.90625 	0.5 	0.0237885
-0.359375 	-0.90625 	0.5 	-0.0500686
-0.34375 	-0.90625 	0.5 	-0.131107
-0.328125 	-0.90625 	0.5 	-0.175235
-0.3125 	-0.90625 	0.5 	-0.24748
-0.296875 	-0.90625 	0.5 	-0.362728
-0.28125 	-0.90625 	0.5 	-0.546682
-0.265625 	-0.90625 	0.5 	-0.660347
-0.25 	-0.90625 	0.5 	-0.80403
-0.234375 	-0.90625 	0.5 	-0.936029
-0.21875 	-0.90625 	0.5 	-1.11125
-0.203125 	-0.90625 	0.5 	-1.29366
-0.1875 	-0.90625 	0.5 	-1.45205
-0.171875 	-0.90625 	0.5 	-1.60568
-0.15625 	-0.90625 	0.5 	-1.76793
-0.140625 	-0.90625 	0.5 	-2.05577
-0.125 	-0.90625 	0.5 	-2.25426
-0.109375 	-0.90625 	0.5 	-2.47553
-0.09375 	-0.90625 	0.5 	-2.69034
-0.078125 	-0.90625 	0.5 	-2.98486
-0.0625 	-0.90625 	0.5 	-3.23468
-0.046875 	-0.90625 	0.5 	-3.38851
-0.03125 	-0.90625 	0.5 	-3.59628
-0.015625 	-0.90625 	0.5 	-3.86128
0 	-0.90625 	0.5 	-4.11391
0.015625 	-0.90625 	0.5 	-4.36062
0.03125 	-0.90625 	0.5 	-4.6072
0.046875 	-0.90625 	0.5 	-4.85037
0.0625 	-0.90625 	0.5 	-5.17112
0.078125 	-0.90625 	0.5 	-5.36902
0.09375 	-0.90625 	0.5 	-5.64343
0.109375 	-0.90625 	0.5 	-5.83316
0.125 	-0.90625 	0.5 	-6.04418
0.140625 	-0.90625 	0.5 	-6.26601
0.15625 	-0.90625 	0.5 	-6.50269
0.171875 	-0.90625 	0.5 	-6.72918
0.1875 	-0.90625 	0.5 	-6.93578
0.203125 	-0.90625 	0.5 	-7.08681
0.21875 	-0.90625 	0.5 	-7.26152
0.234375 	-0.90625 	0.5 	-7.51071
0.25 	-0.90625 	0.5 	-7.65836
0.265625 	-0.90625 	0.5 	-7.83181
0.28125 	-0.90625 	0.5 	-7.95879
0.296875 	-0.90625 	0.5 	-8.08933
0.3125 	-0.90625 	0.5 	-8.19823
0.328125 	-0.90625 	0.5 	-8.32105
0.34375 	-0.90625 	0.5 	-8.44524
0.359375 	-0.90625 	0.5 	-8.53211
0.375 	-0.90625 	0.5 	-8.61313
0.390625 	-0.90625 	0.5 	-8.68999
0.40625 	-0.90625 	0.5 	-8.7447
0.421875 	-0.90625 	0.5 	-8.78707
0.4375 	-0.90625 	0.5 	-8.82312
0.453125 	-0.90625 	0.5 	-8.83724
0.46875 	-0.90625 	0.5 	-8.84185
0.484375 	-0.90625 	0.5 	-8.78778
0.5 	-0.90625 	0.5 	-8.79079
0.515625 	-0.90625 	0.5 	-8.78928
0.53125 	-0.90625 	0.5 	-8.77146
0.546875 	-0.90625 	0.5 	-8.7685
0.5625 	-0.90625 	0.5 	-8.69754
0.578125 	-0.90625 	0.5 	-8.59238
0.59375 	-0.90625 	0.5 	-8.514
0.609375 	-0.90625 	0.5 	-8.42507
0.625 	-0.90625 	0.5 	-8.32662
0.640625 	-0.90625 	0.5 	-8.22574
0.65625 	-0.90625 	0.5 	-8.12204
0.671875 	-0.90625 	0.5 	-8.01802
0.6875 	-0.90625 	0.5 	-7.87969
0.703125 	-0.90625 	0.5 	-7.74707
0.71875 	-0.90625 	0.5 	-7.61298
0.734375 	-0.90625 	0.5 	-7.48173
0.75 	-0.90625 	0.5 	-7.35095
0.765625 	-0.90625 	0.5 	-7.21596
0.78125 	-0.90625 	0.5 	-7.06941
0.796875 	-0.90625 	0.5 	-6.91205
0.8125 	-0.90625 	0.5 	-6.75434
0.828125 	-0.90625 	0.5 	-6.60014
0.84375 	-0.90625 	0.5 	-6.45422
0.859375 	-0.90625 	0.5 	-6.30446
0.875 	-0.90625 	0.5 	-6.16776
0.890625 	-0.90625 	0.5 	-6.01468
0.90625 	-0.90625 	0.5 	-5.84993
0.921875 	-0.90625 	0.5 	-5.75103
0.9375 	-0.90625 	0.5 	-5.61644
0.953125 	-0.90625 	0.5 	-5.42072
0.96875 	-0.90625 	0.5 	-5.2865
0.984375 	-0.90625 	0.5 	-5.14771
1 	-0.90625 	0.5 	-5.04001
1.01562 	-0.90625 	0.5 	-4.94846
1.03125 	-0.90625 	0.5 	-4.83552
1.04688 	-0.90625 	0.5 	-4.69926
1.0625 	-0.90625 	0.5 	-4.58937
1.07812 	-0.90625 	0.5 	-4.50301
1.09375 	-0.90625 	0.5 	-4.41935
1.10938 	-0.90625 	0.5 	-4.32263
1.125 	-0.90625 	0.5 	-4.23141
1.14062 	-0.90625 	0.5 	-4.15352
1.15625 	-0.90625 	0.5 	-4.08363
1.17188 	-0.90625 	0.5 	-4.01857
1.1875 	-0.90625 	0.5 	-3.96721
1.20312 	-0.90625 	0.5 	-3.90402
1.21875 	-0.90625 	0.5 	-3.83373
1.23438 	-0.90625 	0.5 	-3.80181
1.25 	-0.90625 	0.5 	-3.77429
1.26562 	-0.90625 	0.5 	-3.76169
1.28125 	-0.90625 	0.5 	-3.75531
1.29688 	-0.90625 	0.5 	-3.74486
1.3125 	-0.90625 	0.5 	-3.73162
1.32812 	-0.90625 	0.5 	-3.72785
1.34375 	-0.90625 	0.5 	-3.72999
1.35938 	-0.90625 	0.5 	-3.73783
1.375 	-0.90625 	0.5 	-3.76058
1.39062 	-0.90625 	0.5 	-3.77063
1.40625 	-0.90625 	0.5 	-3.77741
1.42188 	-0.90625 	0.5 	-3.8068
1.4375 	-0.90625 	0.5 	-3.85197
1.45312 	-0.90625 	0.5 	-3.89047
1.46875 	-0.90625 	0.5 	-3.88072
1.48438 	-0.90625 	0.5 	-3.95506
-0.5 	-0.890625 	0.5 	0.566354
-0.484375 	-0.890625 	0.5 	0.559802
-0.46875 	-0.890625 	0.5 	0.55316
-0.453125 	-0.890625 	0.5 	0.543941
-0.4375 	-0.890625 	0.5 	0.506334
-0.421875 	-0.890625 	0.5 	0.472988
-0.40625 	-0.890625 	0.5 	0.414131
-0.390625 	-0.890625 	0.5 	0.391897
-0.375 	-0.890625 	0.5 	0.295442
-0.359375 	-0.890625 	0.5 	0.202075
-0.34375 	-0.890625 	0.5 	0.081599
-0.328125 	-0.890625 	0.5 	0.0494381
-0.3125 	-0.890625 	0.5 	-0.0249628
-0.296875 	-0.890625 	0.5 	-0.123253
-0.28125 	-0.890625 	0.5 	-0.329106
-0.265625 	-0.890625 	0.5 	-0.459874
-0.25 	-0.890625 	0.5 	-0.608376
-0.234375 	-0.890625 	0.5 	-0.748339
-0.21875 	-0.890625 	0.5 	-0.956692
-0.203125 	-0.890625 	0.5 	-1.13031
-0.1875 	-0.890625 	0.5 	-1.29575
-0.171875 	-0.890625 	0.5 	-1.39671
-0.15625 	-0.890625 	0.5 	-1.5902