-0.5 	-1 	0.5 	-5.67814
-0.484375 	-1 	0.5 	-5.57294
-0.46875 	-1 	0.5 	-5.54647
-0.453125 	-1 	0.5 	-5.48196
-0.4375 	-1 	0.5 	-5.42891
-0.421875 	-1 	0.5 	-5.33987
-0.40625 	-1 	0.5 	-5.31641
-0.390625 	-1 	0.5 	-5.25855
-0.375 	-1 	0.5 	-5.18996
-0.359375 	-1 	0.5 	-5.14193
-0.34375 	-1 	0.5 	-5.1037
-0.328125 	-1 	0.5 	-5.06546
-0.3125 	-1 	0.5 	-5.03245
-0.296875 	-1 	0.5 	-5.0018
-0.28125 	-1 	0.5 	-5.02666
-0.265625 	-1 	0.5 	-5.05223
-0.25 	-1 	0.5 	-4.99073
-0.234375 	-1 	0.5 	-4.96732
-0.21875 	-1 	0.5 	-4.97789
-0.203125 	-1 	0.5 	-4.99664
-0.1875 	-1 	0.5 	-5.0163
-0.171875 	-1 	0.5 	-5.03951
-0.15625 	-1 	0.5 	-5.07675
-0.140625 	-1 	0.5 	-5.09592
-0.125 	-1 	0.5 	-5.12266
-0.109375 	-1 	0.5 	-5.17386
-0.09375 	-1 	0.5 	-5.23794
-0.078125 	-1 	0.5 	-5.30649
-0.0625 	-1 	0.5 	-5.32655
-0.046875 	-1 	0.5 	-5.36634
-0.03125 	-1 	0.5 	-5.38789
-0.015625 	-1 	0.5 	-5.42517
0 	-1 	0.5 	-5.49302
0.015625 	-1 	0.5 	-5.53506
0.03125 	-1 	0.5 	-5.59968
0.046875 	-1 	0.5 	-5.67095
0.0625 	-1 	0.5 	-5.73132
0.078125 	-1 	0.5 	-5.79257
0.09375 	-1 	0.5 	-5.82689
0.109375 	-1 	0.5 	-5.85969
0.125 	-1 	0.5 	-5.88152
0.140625 	-1 	0.5 	-5.96923
0.15625 	-1 	0.5 	-6.01106
0.171875 	-1 	0.5 	-6.0599
0.1875 	-1 	0.5 	-6.11195
0.203125 	-1 	0.5 	-6.17875
0.21875 	-1 	0.5 	-6.2176
0.234375 	-1 	0.5 	-6.24145
0.25 	-1 	0.5 	-6.30036
0.265625 	-1 	0.5 	-6.33397
0.28125 	-1 	0.5 	-6.36749
0.296875 	-1 	0.5 	-6.40217
0.3125 	-1 	0.5 	-6.43639
0.328125 	-1 	0.5 	-6.46337
0.34375 	-1 	0.5 	-6.48002
0.359375 	-1 	0.5 	-6.49731
0.375 	-1 	0.5 	-6.51498
0.390625 	-1 	0.5 	-6.53559
0.40625 	-1 	0.5 	-6.5495
0.421875 	-1 	0.5 	-6.57249
0.4375 	-1 	0.5 	-6.58112
0.453125 	-1 	0.5 	-6.58914
0.46875 	-1 	0.5 	-6.59517
0.484375 	-1 	0.5 	-6.60218
0.5 	-1 	0.5 	-6.59841
0.515625 	-1 	0.5 	-6.60332
0.53125 	-1 	0.5 	-6.6078
0.546875 	-1 	0.5 	-6.61421
0.5625 	-1 	0.5 	-6.61298
0.578125 	-1 	0.5 	-6.61847
0.59375 	-1 	0.5 	-6.60887
0.609375 	-1 	0.5 	-6.60359
0.625 	-1 	0.5 	-6.60145
0.640625 	-1 	0.5 	-6.60542
0.65625 	-1 	0.5 	-6.60851
0.671875 	-1 	0.5 	-6.61287
0.6875 	-1 	0.5 	-6.61327
0.703125 	-1 	0.5 	-6.61144
0.71875 	-1 	0.5 	-6.61987
0.734375 	-1 	0.5 	-6.62438
0.75 	-1 	0.5 	-6.60473
0.765625 	-1 	0.5 	-6.62471
0.78125 	-1 	0.5 	-6.64643
0.796875 	-1 	0.5 	-6.64644
0.8125 	-1 	0.5 	-6.65916
0.828125 	-1 	0.5 	-6.68654
0.84375 	-1 	0.5 	-6.69684
0.859375 	-1 	0.5 	-6.71961
0.875 	-1 	0.5 	-6.72064
0.890625 	-1 	0.5 	-6.7588
0.90625 	-1 	0.5 	-6.78651
0.921875 	-1 	0.5 	-6.83047
0.9375 	-1 	0.5 	-6.85037
0.953125 	-1 	0.5 	-6.91325
0.96875 	-1 	0.5 	-6.94975
0.984375 	-1 	0.5 	-6.99304
1 	-1 	0.5 	-7.06095
1.01562 	-1 	0.5 	-7.11803
1.03125 	-1 	0.5 	-7.18289
1.04688 	-1 	0.5 	-7.19569
1.0625 	-1 	0.5 	-7.25765
1.07812 	-1 	0.5 	-7.34741
1.09375 	-1 	0.5 	-7.40068
1.10938 	-1 	0.5 	-7.4742
1.125 	-1 	0.5 	-7.55576
1.14062 	-1 	0.5 	-7.63732
1.15625 	-1 	0.5 	-7.73485
1.17188 	-1 	0.5 	-7.82548
1.1875 	-1 	0.5 	-7.91808
1.20312 	-1 	0.5 	-8.02142
1.21875 	-1 	0.5 	-8.12498
1.23438 	-1 	0.5 	-8.18229
1.25 	-1 	0.5 	-8.26404
1.26562 	-1 	0.5 	-8.40267
1.28125 	-1 	0.5 	-8.50772
1.29688 	-1 	0.5 	-8.65215
1.3125 	-1 	0.5 	-8.81961
1.32812 	-1 	0.5 	-8.96702
1.34375 	-1 	0.5 	-8.98716
1.35938 	-1 	0.5 	-9.11515
1.375 	-1 	0.5 	-9.25113
1.39062 	-1 	0.5 	-9.36786
1.40625 	-1 	0.5 	-9.49087
1.42188 	-1 	0.5 	-9.62858
1.4375 	-1 	0.5 	-9.77312
1.45312 	-1 	0.5 	-9.89344
1.46875 	-1 	0.5 	-10.0396
1.48438 	-1 	0.5 	-10.2024
-0.5 	-0.984375 	0.5 	-5.49861
-0.484375 	-0.984375 	0.5 	-5.38687
-0.46875 	-0.984375 	0.5 	-5.3457
-0.453125 	-0.984375 	0.5 	-5.30307
-0.4375 	-0.984375 	0.5 	-5.24554
-0.421875 	-0.984375 	0.5 	-5.17243
-0.40625 	-0.984375 	0.5 	-5.12088
-0.390625 	-0.984375 	0.5 	-5.05229
-0.375 	-0.984375 	0.5 	-5.0002
-0.359375 	-0.984375 	0.5 	-4.91285
-0.34375 	-0.984375 	0.5 	-4.83633
-0.328125 	-0.984375 	0.5 	-4.81891
-0.3125 	-0.984375 	0.5 	-4.84227
-0.296875 	-0.984375 	0.5 	-4.84508
-0.28125 	-0.984375 	0.5 	-4.84646
-0.265625 	-0.984375 	0.5 	-4.87313
-0.25 	-0.984375 	0.5 	-4.81383
-0.234375 	-0.984375 	0.5 	-4.80805
-0.21875 	-0.984375 	0.5 	-4.77403
-0.203125 	-0.984375 	0.5 	-4.81527
-0.1875 	-0.984375 	0.5 	-4.83282
-0.171875 	-0.984375 	0.5 	-4.85502
-0.15625 	-0.984375 	0.5 	-4.90907
-0.140625 	-0.984375 	0.5 	-4.95238
-0.125 	-0.984375 	0.5 	-4.97152
-0.109375 	-0.984375 	0.5 	-5.03661
-0.09375 	-0.984375 	0.5 	-5.10784
-0.078125 	-0.984375 	0.5 	-5.16312
-0.0625 	-0.984375 	0.5 	-5.20361
-0.046875 	-0.984375 	0.5 	-5.21399
-0.03125 	-0.984375 	0.5 	-5.26082
-0.015625 	-0.984375 	0.5 	-5.30385
0 	-0.984375 	0.5 	-5.33847
0.015625 	-0.984375 	0.5 	-5.41111
0.03125 	-0.984375 	0.5 	-5.49016
0.046875 	-0.984375 	0.5 	-5.56982
0.0625 	-0.984375 	0.5 	-5.63566
0.078125 	-0.984375 	0.5 	-5.68123
0.09375 	-0.984375 	0.5 	-5.73474
0.109375 	-0.984375 	0.5 	-5.78766
0.125 	-0.984375 	0.5 	-5.83228
0.140625 	-0.984375 	0.5 	-5.86887
0.15625 	-0.984375 	0.5 	-5.92712
0.171875 	-0.984375 	0.5 	-5.98238
0.1875 	-0.984375 	0.5 	-6.03875
0.203125 	-0.984375 	0.5 	-6.09677
0.21875 	-0.984375 	0.5 	-6.14158
0.234375 	-0.984375 	0.5 	-6.18023
0.25 	-0.984375 	0.5 	-6.21513
0.265625 	-0.984375 	0.5 	-6.24962
0.28125 	-0.984375 	0.5 	-6.30318
0.296875 	-0.984375 	0.5 	-6.33486
0.3125 	-0.984375 	0.5 	-6.36897
0.328125 	-0.984375 	0.5 	-6.3894
0.34375 	-0.984375 	0.5 	-6.41133
0.359375 	-0.984375 	0.5 	-6.43972
0.375 	-0.984375 	0.5 	-6.45743
0.390625 	-0.984375 	0.5 	-6.47442
0.40625 	-0.984375 	0.5 	-6.48441
0.421875 	-0.984375 	0.5 	-6.50108
0.4375 	-0.984375 	0.5 	-6.50458
0.453125 	-0.984375 	0.5 	-6.50826
0.46875 	-0.984375 	0.5 	-6.52451
0.484375 	-0.984375 	0.5 	-6.54076
0.5 	-0.984375 	0.5 	-6.53786
0.515625 	-0.984375 	0.5 	-6.53177
0.53125 	-0.984375 	0.5 	-6.52894
0.546875 	-0.984375 	0.5 	-6.53639
0.5625 	-0.984375 	0.5 	-6.53097
0.578125 	-0.984375 	0.5 	-6.5242
0.59375 	-0.984375 	0.5 	-6.52375
0.609375 	-0.984375 	0.5 	-6.51373
0.625 	-0.984375 	0.5 	-6.50814
0.640625 	-0.984375 	0.5 	-6.51085
0.65625 	-0.984375 	0.5 	-6.51141
0.671875 	-0.984375 	0.5 	-6.50979
0.6875 	-0.984375 	0.5 	-6.51254
0.703125 	-0.984375 	0.5 	-6.50776
0.71875 	-0.984375 	0.5 	-6.51576
0.734375 	-0.984375 	0.5 	-6.52111
0.75 	-0.984375 	0.5 	-6.52609
0.765625 	-0.984375 	0.5 	-6.51857
0.78125 	-0.984375 	0.5 	-6.51238
0.796875 	-0.984375 	0.5 	-6.52204
0.8125 	-0.984375 	0.5 	-6.52491
0.828125 	-0.984375 	0.5 	-6.55413
0.84375 	-0.984375 	0.5 	-6.57769
0.859375 	-0.984375 	0.5 	-6.6019
0.875 	-0.984375 	0.5 	-6.61994
0.890625 	-0.984375 	0.5 	-6.63798
0.90625 	-0.984375 	0.5 	-6.65713
0.921875 	-0.984375 	0.5 	-6.68925
0.9375 	-0.984375 	0.5 	-6.72137
0.953125 	-0.984375 	0.5 	-6.76301
0.96875 	-0.984375 	0.5 	-6.81407
0.984375 	-0.984375 	0.5 	-6.8479
1 	-0.984375 	0.5 	-6.93713
1.01562 	-0.984375 	0.5 	-6.98166
1.03125 	-0.984375 	0.5 	-7.03634
1.04688 	-0.984375 	0.5 	-7.05455
1.0625 	-0.984375 	0.5 	-7.14021
1.07812 	-0.984375 	0.5 	-7.20428
1.09375 	-0.984375 	0.5 	-7.26103
1.10938 	-0.984375 	0.5 	-7.33442
1.125 	-0.984375 	0.5 	-7.41934
1.14062 	-0.984375 	0.5 	-7.50701
1.15625 	-0.984375 	0.5 	-7.60175
1.17188 	-0.984375 	0.5 	-7.7
1.1875 	-0.984375 	0.5 	-7.79994
1.20312 	-0.984375 	0.5 	-7.89989
1.21875 	-0.984375 	0.5 	-7.99501
1.23438 	-0.984375 	0.5 	-8.08338
1.25 	-0.984375 	0.5 	-8.16689
1.26562 	-0.984375 	0.5 	-8.25955
1.28125 	-0.984375 	0.5 	-8.40068
1.29688 	-0.984375 	0.5 	-8.5353
1.3125 	-0.984375 	0.5 	-8.68856
1.32812 	-0.984375 	0.5 	-8.83363
1.34375 	-0.984375 	0.5 	-8.88218
1.35938 	-0.984375 	0.5 	-9.00932
1.375 	-0.984375 	0.5 	-9.14486
1.39062 	-0.984375 	0.5 	-9.2766
1.40625 	-0.984375 	0.5 	-9.39366
1.42188 	-0.984375 	0.5 	-9.50549
1.4375 	-0.984375 	0.5 	-9.68644
1.45312 	-0.984375 	0.5 	-9.79942
1.46875 	-0.984375 	0.5 	-9.97561
1.48438 	-0.984375 	0.5 	-10.1141
-0.5 	-0.96875 	0.5 	-5.31273
-0.484375 	-0.96875 	0.5 	-5.25931
-0.46875 	-0.96875 	0.5 	-5.18831
-0.453125 	-0.96875 	0.5 	-5.09864
-0.4375 	-0.96875 	0.5 	-5.04056
-0.421875 	-0.96875 	0.5 	-4.97862
-0.40625 	-0.96875 	0.5 	-4.9198
-0.390625 	-0.96875 	0.5 	-4.86788
-0.375 	-0.96875 	0.5 	-4.81251
-0.359375 	-0.96875 	0.5 	-4.73611
-0.34375 	-0.96875 	0.5 	-4.62386
-0.328125 	-0.96875 	0.5 	-4.67248
-0.3125 	-0.96875 	0.5 	-4.6059
-0.296875 	-0.96875 	0.5 	-4.63751
-0.28125 	-0.96875 	0.5 	-4.68639
-0.265625 	-0.96875 	0.5 	-4.65875
-0.25 	-0.96875 	0.5 	-4.63761
-0.234375 	-0.96875 	0.5 	-4.63169
-0.21875 	-0.96875 	0.5 	-4.6349
-0.203125 	-0.96875 	0.5 	-4.6381
-0.1875 	-0.96875 	0.5 	-4.65428
-0.171875 	-0.96875 	0.5 	-4.68398
-0.15625 	-0.96875 	0.5 	-4.73857
-0.140625 	-0.96875 	0.5 	-4.78933
-0.125 	-0.96875 	0.5 	-4.81301
-0.109375 	-0.96875 	0.5 	-4.86572
-0.09375 	-0.96875 	0.5 	-4.93926
-0.078125 	-0.96875 	0.5 	-5.00055
-0.0625 	-0.96875 	0.5 	-5.01885
-0.046875 	-0.96875 	0.5 	-5.05167
-0.03125 	-0.96875 	0.5 	-5.12014
-0.015625 	-0.96875 	0.5 	-5.17881
0 	-0.96875 	0.5 	-5.22518
0.015625 	-0.96875 	0.5 	-5.30478
0.03125 	-0.96875 	0.5 	-5.37226
0.046875 	-0.96875 	0.5 	-5.43899
0.0625 	-0.96875 	0.5 	-5.49838
0.078125 	-0.96875 	0.5 	-5.56307
0.09375 	-0.96875 	0.5 	-5.63463
0.109375 	-0.96875 	0.5 	-5.6598
0.125 	-0.96875 	0.5 	-5.72095
0.140625 	-0.96875 	0.5 	-5.78763
0.15625 	-0.96875 	0.5 	-5.8562
0.171875 	-0.96875 	0.5 	-5.91864
0.1875 	-0.96875 	0.5 	-5.97562
0.203125 	-0.96875 	0.5 	-6.02111
0.21875 	-0.96875 	0.5 	-6.06751
0.234375 	-0.96875 	0.5 	-6.11751
0.25 	-0.96875 	0.5 	-6.13617
0.265625 	-0.96875 	0.5 	-6.17959
0.28125 	-0.96875 	0.5 	-6.2221
0.296875 	-0.96875 	0.5 	-6.26061
0.3125 	-0.96875 	0.5 	-6.30297
0.328125 	-0.96875 	0.5 	-6.32096
0.34375 	-0.96875 	0.5 	-6.35074
0.359375 	-0.96875 	0.5 	-6.37287
0.375 	-0.96875 	0.5 	-6.40353
0.390625 	-0.96875 	0.5 	-6.41816
0.40625 	-0.96875 	0.5 	-6.42734
0.421875 	-0.96875 	0.5 	-6.43216
0.4375 	-0.96875 	0.5 	-6.42595
0.453125 	-0.96875 	0.5 	-6.43367
0.46875 	-0.96875 	0.5 	-6.4568
0.484375 	-0.96875 	0.5 	-6.4653
0.5 	-0.96875 	0.5 	-6.46662
0.515625 	-0.96875 	0.5 	-6.45709
0.53125 	-0.96875 	0.5 	-6.45737
0.546875 	-0.96875 	0.5 	-6.45156
0.5625 	-0.96875 	0.5 	-6.45127
0.578125 	-0.96875 	0.5 	-6.43179
0.59375 	-0.96875 	0.5 	-6.42655
0.609375 	-0.96875 	0.5 	-6.42397
0.625 	-0.96875 	0.5 	-6.41563
0.640625 	-0.96875 	0.5 	-6.40183
0.65625 	-0.96875 	0.5 	-6.39946
0.671875 	-0.96875 	0.5 	-6.41677
0.6875 	-0.96875 	0.5 	-6.40863
0.703125 	-0.96875 	0.5 	-6.39328
0.71875 	-0.96875 	0.5 	-6.38757
0.734375 	-0.96875 	0.5 	-6.43278
0.75 	-0.96875 	0.5 	-6.42585
0.765625 	-0.96875 	0.5 	-6.38432
0.78125 	-0.96875 	0.5 	-6.3729
0.796875 	-0.96875 	0.5 	-6.39763
0.8125 	-0.96875 	0.5 	-6.41119
0.828125 	-0.96875 	0.5 	-6.40859
0.84375 	-0.96875 	0.5 	-6.4554
0.859375 	-0.96875 	0.5 	-6.45258
0.875 	-0.96875 	0.5 	-6.48657
0.890625 	-0.96875 	0.5 	-6.51327
0.90625 	-0.96875 	0.5 	-6.52389
0.921875 	-0.96875 	0.5 	-6.55597
0.9375 	-0.96875 	0.5 	-6.58537
0.953125 	-0.96875 	0.5 	-6.58251
0.96875 	-0.96875 	0.5 	-6.66124
0.984375 	-0.96875 	0.5 	-6.70423
1 	-0.96875 	0.5 	-6.78003
1.01562 	-0.96875 	0.5 	-6.83299
1.03125 	-0.96875 	0.5 	-6.88649
1.04688 	-0.96875 	0.5 	-6.95005
1.0625 	-0.96875 	0.5 	-7.00966
1.07812 	-0.96875 	0.5 	-7.06274
1.09375 	-0.96875 	0.5 	-7.11618
1.10938 	-0.96875 	0.5 	-7.19389
1.125 	-0.96875 	0.5 	-7.26601
1.14062 	-0.96875 	0.5 	-7.3635
1.15625 	-0.96875 	0.5 	-7.47206
1.17188 	-0.96875 	0.5 	-7.54794
1.1875 	-0.96875 	0.5 	-7.65387
1.20312 	-0.96875 	0.5 	-7.74987
1.21875 	-0.96875 	0.5 	-7.83419
1.23438 	-0.96875 	0.5 	-7.95023
1.25 	-0.96875 	0.5 	-8.02333
1.26562 	-0.96875 	0.5 	-8.14197
1.28125 	-0.96875 	0.5 	-8.3108
1.29688 	-0.96875 	0.5 	-8.44742
1.3125 	-0.96875 	0.5 	-8.53746
1.32812 	-0.96875 	0.5 	-8.70024
1.34375 	-0.96875 	0.5 	-8.77719
1.35938 	-0.96875 	0.5 	-8.91133
1.375 	-0.96875 	0.5 	-9.03635
1.39062 	-0.96875 	0.5 	-9.17198
1.40625 	-0.96875 	0.5 	-9.31635
1.42188 	-0.96875 	0.5 	-9.46133
1.4375 	-0.96875 	0.5 	-9.59616
1.45312 	-0.96875 	0.5 	-9.74503
1.46875 	-0.96875 	0.5 	-9.8775
1.48438 	-0.96875 	0.5 	-10.0403
-0.5 	-0.953125 	0.5 	-5.14314
-0.484375 	-0.953125 	0.5 	-5.05834
-0.46875 	-0.953125 	0.5 	-4.98413
-0.453125 	-0.953125 	0.5 	-4.8921
-0.4375 	-0.953125 	0.5 	-4.83271
-0.421875 	-0.953125 	0.5 	-4.74969
-0.40625 	-0.953125 	0.5 	-4.71908
-0.390625 	-0.953125 	0.5 	-4.66964
-0.375 	-0.953125 	0.5 	-4.61651
-0.359375 	-0.953125 	0.5 	-4.55653
-0.34375 	-0.953125 	0.5 	-4.50268
-0.328125 	-0.953125 	0.5 	-4.44537
-0.3125 	-0.953125 	0.5 	-4.39257
-0.296875 	-0.953125 	0.5 	-4.40837
-0.28125 	-0.953125 	0.5 	-4.4541
-0.265625 	-0.953125 	0.5 	-4.42028
-0.25 	-0.953125 	0.5 	-4.43543
-0.234375 	-0.953125 	0.5 	-4.46776
-0.21875 	-0.953125 	0.5 	-4.47591
-0.203125 	-0.953125 	0.5 	-4.47407
-0.1875 	-0.953125 	0.5 	-4.48209
-0.171875 	-0.953125 	0.5 	-4.5686
-0.15625 	-0.953125 	0.5 	-4.58734
-0.140625 	-0.953125 	0.5 	-4.61209
-0.125 	-0.953125 	0.5 	-4.63785
-0.109375 	-0.953125 	0.5 	-4.68605
-0.09375 	-0.953125 	0.5 	-4.75508
-0.078125 	-0.953125 	0.5 	-4.83171
-0.0625 	-0.953125 	0.5 	-4.88605
-0.046875 	-0.953125 	0.5 	-4.918
-0.03125 	-0.953125 	0.5 	-4.98019
-0.015625 	-0.953125 	0.5 	-5.04132
0 	-0.953125 	0.5 	-5.09934
0.015625 	-0.953125 	0.5 	-5.16989
0.03125 	-0.953125 	0.5 	-5.2386
0.046875 	-0.953125 	0.5 	-5.31948
0.0625 	-0.953125 	0.5 	-5.40228
0.078125 	-0.953125 	0.5 	-5.45404
0.09375 	-0.953125 	0.5 	-5.51884
0.109375 	-0.953125 	0.5 	-5.5711
0.125 	-0.953125 	0.5 	-5.63719
0.140625 	-0.953125 	0.5 	-5.70676
0.15625 	-0.953125 	0.5 	-5.79372
0.171875 	-0.953125 	0.5 	-5.84044
0.1875 	-0.953125 	0.5 	-5.89407
0.203125 	-0.953125 	0.5 	-5.94593
0.21875 	-0.953125 	0.5 	-5.98736
0.234375 	-0.953125 	0.5 	-6.02878
0.25 	-0.953125 	0.5 	-6.06991
0.265625 	-0.953125 	0.5 	-6.11156
0.28125 	-0.953125 	0.5 	-6.15946
0.296875 	-0.953125 	0.5 	-6.19899
0.3125 	-0.953125 	0.5 	-6.24368
0.328125 	-0.953125 	0.5 	-6.27393
0.34375 	-0.953125 	0.5 	-6.29014
0.359375 	-0.953125 	0.5 	-6.316
0.375 	-0.953125 	0.5 	-6.33545
0.390625 	-0.953125 	0.5 	-6.35391
0.40625 	-0.953125 	0.5 	-6.36318
0.421875 	-0.953125 	0.5 	-6.37087
0.4375 	-0.953125 	0.5 	-6.37247
0.453125 	-0.953125 	0.5 	-6.37016
0.46875 	-0.953125 	0.5 	-6.38116
0.484375 	-0.953125 	0.5 	-6.38954
0.5 	-0.953125 	0.5 	-6.39373
0.515625 	-0.953125 	0.5 	-6.38402
0.53125 	-0.953125 	0.5 	-6.37481
0.546875 	-0.953125 	0.5 	-6.37528
0.5625 	-0.953125 	0.5 	-6.36512
0.578125 	-0.953125 	0.5 	-6.35459
0.59375 	-0.953125 	0.5 	-6.33957
0.609375 	-0.953125 	0.5 	-6.34288
0.625 	-0.953125 	0.5 	-6.33495
0.640625 	-0.953125 	0.5 	-6.33604
0.65625 	-0.953125 	0.5 	-6.29884
0.671875 	-0.953125 	0.5 	-6.30306
0.6875 	-0.953125 	0.5 	-6.30783
0.703125 	-0.953125 	0.5 	-6.28079
0.71875 	-0.953125 	0.5 	-6.28035
0.734375 	-0.953125 	0.5 	-6.30472
0.75 	-0.953125 	0.5 	-6.28819
0.765625 	-0.953125 	0.5 	-6.27344
0.78125 	-0.953125 	0.5 	-6.284
0.796875 	-0.953125 	0.5 	-6.2744
0.8125 	-0.953125 	0.5 	-6.27958
0.828125 	-0.953125 	0.5 	-6.28262
0.84375 	-0.953125 	0.5 	-6.32907
0.859375 	-0.953125 	0.5 	-6.33159
0.875 	-0.953125 	0.5 	-6.32862
0.890625 	-0.953125 	0.5 	-6.42356
0.90625 	-0.953125 	0.5 	-6.43462
0.921875 	-0.953125 	0.5 	-6.4193
0.9375 	-0.953125 	0.5 	-6.41891
0.953125 	-0.953125 	0.5 	-6.40817
0.96875 	-0.953125 	0.5 	-6.4891
0.984375 	-0.953125 	0.5 	-6.5579
1 	-0.953125 	0.5 	-6.61306
1.01562 	-0.953125 	0.5 	-6.6676
1.03125 	-0.953125 	0.5 	-6.70744
1.04688 	-0.953125 	0.5 	-6.82794
1.0625 	-0.953125 	0.5 	-6.86162
1.07812 	-0.953125 	0.5 	-6.91633
1.09375 	-0.953125 	0.5 	-6.97285
1.10938 	-0.953125 	0.5 	-7.04848
1.125 	-0.953125 	0.5 	-7.12676
1.14062 	-0.953125 	0.5 	-7.22427
1.15625 	-0.953125 	0.5 	-7.32175
1.17188 	-0.953125 	0.5 	-7.41347
1.1875 	-0.953125 	0.5 	-7.49963
1.20312 	-0.953125 	0.5 	-7.58722
1.21875 	-0.953125 	0.5 	-7.6733
1.23438 	-0.953125 	0.5 	-7.79905
1.25 	-0.953125 	0.5 	-7.90469
1.26562 	-0.953125 	0.5 	-8.04558
1.28125 	-0.953125 	0.5 	-8.19251
1.29688 	-0.953125 	0.5 	-8.32209
1.3125 	-0.953125 	0.5 	-8.44958
1.32812 	-0.953125 	0.5 	-8.56685
1.34375 	-0.953125 	0.5 	-8.67657
1.35938 	-0.953125 	0.5 	-8.78858
1.375 	-0.953125 	0.5 	-8.90059
1.39062 	-0.953125 	0.5 	-9.06003
1.40625 	-0.953125 	0.5 	-9.19168
1.42188 	-0.953125 	0.5 	-9.3439
1.4375 	-0.953125 	0.5 	-9.51316
1.45312 	-0.953125 	0.5 	-9.67623
1.46875 	-0.953125 	0.5 	-9.82372
1.48438 	-0.953125 	0.5 	-9.97121
-0.5 	-0.9375 	0.5 	-4.96057
-0.484375 	-0.9375 	0.5 	-4.87019
-0.46875 	-0.9375 	0.5 	-4.78079
-0.453125 	-0.9375 	0.5 	-4.67833
-0.4375 	-0.9375 	0.5 	-4.60685
-0.421875 	-0.9375 	0.5 	-4.526
-0.40625 	-0.9375 	0.5 	-4.50802
-0.390625 	-0.9375 	0.5 	-4.47185
-0.375 	-0.9375 	0.5 	-4.4192
-0.359375 	-0.9375 	0.5 	-4.36486
-0.34375 	-0.9375 	0.5 	-4.31572
-0.328125 	-0.9375 	0.5 	-4.27371
-0.3125 	-0.9375 	0.5 	-4.23169
-0.296875 	-0.9375 	0.5 	-4.19315
-0.28125 	-0.9375 	0.5 	-4.20848
-0.265625 	-0.9375 	0.5 	-4.23019
-0.25 	-0.9375 	0.5 	-4.23628
-0.234375 	-0.9375 	0.5 	-4.275
-0.21875 	-0.9375 	0.5 	-4.30358
-0.203125 	-0.9375 	0.5 	-4.34512
-0.1875 	-0.9375 	0.5 	-4.36527
-0.171875 	-0.9375 	0.5 	-4.40795
-0.15625 	-0.9375 	0.5 	-4.39537
-0.140625 	-0.9375 	0.5 	-4.35061
-0.125 	-0.9375 	0.5 	-4.45599
-0.109375 	-0.9375 	0.5 	-4.50234
-0.09375 	-0.9375 	0.5 	-4.6079
-0.078125 	-0.9375 	0.5 	-4.66572
-0.0625 	-0.9375 	0.5 	-4.72825
-0.046875 	-0.9375 	0.5 	-4.78379
-0.03125 	-0.9375 	0.5 	-4.84427
-0.015625 	-0.9375 	0.5 	-4.87851
0 	-0.9375 	0.5 	-4.97337
0.015625 	-0.9375 	0.5 	-5.04434
0.03125 	-0.9375 	0.5 	-5.11849
0.046875 	-0.9375 	0.5 	-5.20758
0.0625 	-0.9375 	0.5 	-5.28655
0.078125 	-0.9375 	0.5 	-5.35361
0.09375 	-0.9375 	0.5 	-5.4124
0.109375 	-0.9375 	0.5 	-5.48504
0.125 	-0.9375 	0.5 	-5.5582
0.140625 	-0.9375 	0.5 	-5.62696
0.15625 	-0.9375 	0.5 	-5.70376
0.171875 	-0.9375 	0.5 	-5.7512
0.1875 	-0.9375 	0.5 	-5.81404
0.203125 	-0.9375 	0.5 	-5.8797
0.21875 	-0.9375 	0.5 	-5.93363
0.234375 	-0.9375 	0.5 	-5.9664
0.25 	-0.9375 	0.5 	-6.01915
0.265625 	-0.9375 	0.5 	-6.0671
0.28125 	-0.9375 	0.5 	-6.09986
0.296875 	-0.9375 	0.5 	-6.13806
0.3125 	-0.9375 	0.5 	-6.18099
0.328125 	-0.9375 	0.5 	-6.21433
0.34375 	-0.9375 	0.5 	-6.23501
0.359375 	-0.9375 	0.5 	-6.25318
0.375 	-0.9375 	0.5 	-6.2663
0.390625 	-0.9375 	0.5 	-6.29164
0.40625 	-0.9375 	0.5 	-6.29757
0.421875 	-0.9375 	0.5 	-6.30765
0.4375 	-0.9375 	0.5 	-6.31521
0.453125 	-0.9375 	0.5 	-6.32404
0.46875 	-0.9375 	0.5 	-6.32437
0.484375 	-0.9375 	0.5 	-6.31869
0.5 	-0.9375 	0.5 	-6.31857
0.515625 	-0.9375 	0.5 	-6.30634
0.53125 	-0.9375 	0.5 	-6.30263
0.546875 	-0.9375 	0.5 	-6.29199
0.5625 	-0.9375 	0.5 	-6.28183
0.578125 	-0.9375 	0.5 	-6.26531
0.59375 	-0.9375 	0.5 	-6.25861
0.609375 	-0.9375 	0.5 	-6.26131
0.625 	-0.9375 	0.5 	-6.26212
0.640625 	-0.9375 	0.5 	-6.22056
0.65625 	-0.9375 	0.5 	-6.20666
0.671875 	-0.9375 	0.5 	-6.20713
0.6875 	-0.9375 	0.5 	-6.19632
0.703125 	-0.9375 	0.5 	-6.18203
0.71875 	-0.9375 	0.5 	-6.16942
0.734375 	-0.9375 	0.5 	-6.14333
0.75 	-0.9375 	0.5 	-6.1608
0.765625 	-0.9375 	0.5 	-6.15933
0.78125 	-0.9375 	0.5 	-6.16445
0.796875 	-0.9375 	0.5 	-6.14597
0.8125 	-0.9375 	0.5 	-6.14549
0.828125 	-0.9375 	0.5 	-6.16096
0.84375 	-0.9375 	0.5 	-6.14783
0.859375 	-0.9375 	0.5 	-6.15448
0.875 	-0.9375 	0.5 	-6.17809
0.890625 	-0.9375 	0.5 	-6.26221
0.90625 	-0.9375 	0.5 	-6.26831
0.921875 	-0.9375 	0.5 	-6.2822
0.9375 	-0.9375 	0.5 	-6.29038
0.953125 	-0.9375 	0.5 	-6.34448
0.96875 	-0.9375 	0.5 	-6.3615
0.984375 	-0.9375 	0.5 	-6.40452
1 	-0.9375 	0.5 	-6.43718
1.01562 	-0.9375 	0.5 	-6.48043
1.03125 	-0.9375 	0.5 	-6.55506
1.04688 	-0.9375 	0.5 	-6.6789
1.0625 	-0.9375 	0.5 	-6.73092
1.07812 	-0.9375 	0.5 	-6.76993
1.09375 	-0.9375 	0.5 	-6.83544
1.10938 	-0.9375 	0.5 	-6.90384
1.125 	-0.9375 	0.5 	-6.97386
1.14062 	-0.9375 	0.5 	-7.04325
1.15625 	-0.9375 	0.5 	-7.13157
1.17188 	-0.9375 	0.5 	-7.23383
1.1875 	-0.9375 	0.5 	-7.34605
1.20312 	-0.9375 	0.5 	-7.45484
1.21875 	-0.9375 	0.5 	-7.56172
1.23438 	-0.9375 	0.5 	-7.6686
1.25 	-0.9375 	0.5 	-7.77192
1.26562 	-0.9375 	0.5 	-7.88557
1.28125 	-0.9375 	0.5 	-8.01394
1.29688 	-0.9375 	0.5 	-8.1423
1.3125 	-0.9375 	0.5 	-8.27719
1.32812 	-0.9375 	0.5 	-8.43153
1.34375 	-0.9375 	0.5 	-8.57014
1.35938 	-0.9375 	0.5 	-8.69437
1.375 	-0.9375 	0.5 	-8.81205
1.39062 	-0.9375 	0.5 	-8.94808
1.40625 	-0.9375 	0.5 	-9.08775
1.42188 	-0.9375 	0.5 	-9.25451
1.4375 	-0.9375 	0.5 	-9.45622
1.45312 	-0.9375 	0.5 	-9.6023
1.46875 	-0.9375 	0.5 	-9.76896
1.48438 	-0.9375 	0.5 	-9.92679
-0.5 	-0.921875 	0.5 	-4.8001
-0.484375 	-0.921875 	0.5 	-4.64876
-0.46875 	-0.921875 	0.5 	-4.57132
-0.453125 	-0.921875 	0.5 	-4.42278
-0.4375 	-0.921875 	0.5 	-4.35215
-0.421875 	-0.921875 	0.5 	-4.34959
-0.40625 	-0.921875 	0.5 	-4.29696
-0.390625 	-0.921875 	0.5 	-4.24609
-0.375 	-0.921875 	0.5 	-4.19432
-0.359375 	-0.921875 	0.5 	-4.15051
-0.34375 	-0.921875 	0.5 	-4.11456
-0.328125 	-0.921875 	0.5 	-4.09456
-0.3125 	-0.921875 	0.5 	-4.05433
-0.296875 	-0.921875 	0.5 	-3.98694
-0.28125 	-0.921875 	0.5 	-4.04671
-0.265625 	-0.921875 	0.5 	-4.03038
-0.25 	-0.921875 	0.5 	-4.0372
-0.234375 	-0.921875 	0.5 	-4.07548
-0.21875 	-0.921875 	0.5 	-4.11119
-0.203125 	-0.921875 	0.5 	-4.12635
-0.1875 	-0.921875 	0.5 	-4.17627
-0.171875 	-0.921875 	0.5 	-4.16337
-0.15625 	-0.921875 	0.5 	-4.16053
-0.140625 	-0.921875 	0.5 	-4.20515
-0.125 	-0.921875 	0.5 	-4.26061
-0.109375 	-0.921875 	0.5 	-4.33142
-0.09375 	-0.921875 	0.5 	-4.41571
-0.078125 	-0.921875 	0.5 	-4.50119
-0.0625 	-0.921875 	0.5 	-4.56359
-0.046875 	-0.921875 	0.5 	-4.64585
-0.03125 	-0.921875 	0.5 	-4.71607
-0.015625 	-0.921875 	0.5 	-4.7843
0 	-0.921875 	0.5 	-4.84945
0.015625 	-0.921875 	0.5 	-4.92496
0.03125 	-0.921875 	0.5 	-4.96643
0.046875 	-0.921875 	0.5 	-5.06545
0.0625 	-0.921875 	0.5 	-5.15327
0.078125 	-0.921875 	0.5 	-5.25764
0.09375 	-0.921875 	0.5 	-5.34399
0.109375 	-0.921875 	0.5 	-5.39405
0.125 	-0.921875 	0.5 	-5.46674
0.140625 	-0.921875 	0.5 	-5.54799
0.15625 	-0.921875 	0.5 	-5.60093
0.171875 	-0.921875 	0.5 	-5.64971
0.1875 	-0.921875 	0.5 	-5.75491
0.203125 	-0.921875 	0.5 	-5.81159
0.21875 	-0.921875 	0.5 	-5.86664
0.234375 	-0.921875 	0.5 	-5.91159
0.25 	-0.921875 	0.5 	-5.96158
0.265625 	-0.921875 	0.5 	-6.01083
0.28125 	-0.921875 	0.5 	-6.04701
0.296875 	-0.921875 	0.5 	-6.08883
0.3125 	-0.921875 	0.5 	-6.12672
0.328125 	-0.921875 	0.5 	-6.15038
0.34375 	-0.921875 	0.5 	-6.18531
0.359375 	-0.921875 	0.5 	-6.21545
0.375 	-0.921875 	0.5 	-6.2333
0.390625 	-0.921875 	0.5 	-6.23122
0.40625 	-0.921875 	0.5 	-6.22291
0.421875 	-0.921875 	0.5 	-6.25218
0.4375 	-0.921875 	0.5 	-6.27556
0.453125 	-0.921875 	0.5 	-6.26682
0.46875 	-0.921875 	0.5 	-6.26125
0.484375 	-0.921875 	0.5 	-6.25336
0.5 	-0.921875 	0.5 	-6.24426
0.515625 	-0.921875 	0.5 	-6.23174
0.53125 	-0.921875 	0.5 	-6.2286
0.546875 	-0.921875 	0.5 	-6.21553
0.5625 	-0.921875 	0.5 	-6.19984
0.578125 	-0.921875 	0.5 	-6.18696
0.59375 	-0.921875 	0.5 	-6.16706
0.609375 	-0.921875 	0.5 	-6.16522
0.625 	-0.921875 	0.5 	-6.14594
0.640625 	-0.921875 	0.5 	-6.12583
0.65625 	-0.921875 	0.5 	-6.11401
0.671875 	-0.921875 	0.5 	-6.10138
0.6875 	-0.921875 	0.5 	-6.08582
0.703125 	-0.921875 	0.5 	-6.07598
0.71875 	-0.921875 	0.5 	-6.05513
0.734375 	-0.921875 	0.5 	-6.03964
0.75 	-0.921875 	0.5 	-6.02196
0.765625 	-0.921875 	0.5 	-6.0653
0.78125 	-0.921875 	0.5 	-6.03791
0.796875 	-0.921875 	0.5 	-6.01753
0.8125 	-0.921875 	0.5 	-6.02321
0.828125 	-0.921875 	0.5 	-6.03109
0.84375 	-0.921875 	0.5 	-6.02718
0.859375 	-0.921875 	0.5 	-6.03652
0.875 	-0.921875 	0.5 	-6.01763
0.890625 	-0.921875 	0.5 	-6.11037
0.90625 	-0.921875 	0.5 	-6.11087
0.921875 	-0.921875 	0.5 	-6.13135
0.9375 	-0.921875 	0.5 	-6.16695
0.953125 	-0.921875 	0.5 	-6.18382
0.96875 	-0.921875 	0.5 	-6.21565
0.984375 	-0.921875 	0.5 	-6.25318
1 	-0.921875 	0.5 	-6.28835
1.01562 	-0.921875 	0.5 	-6.31954
1.03125 	-0.921875 	0.5 	-6.37137
1.04688 	-0.921875 	0.5 	-6.45416
1.0625 	-0.921875 	0.5 	-6.53653
1.07812 	-0.921875 	0.5 	-6.61873
1.09375 	-0.921875 	0.5 	-6.68825
1.10938 	-0.921875 	0.5 	-6.75037
1.125 	-0.921875 	0.5 	-6.8218
1.14062 	-0.921875 	0.5 	-6.90713
1.15625 	-0.921875 	0.5 	-6.99028
1.17188 	-0.921875 	0.5 	-7.10134
1.1875 	-0.921875 	0.5 	-7.19496
1.20312 	-0.921875 	0.5 	-7.30667
1.21875 	-0.921875 	0.5 	-7.41861
1.23438 	-0.921875 	0.5 	-7.51824
1.25 	-0.921875 	0.5 	-7.61239
1.26562 	-0.921875 	0.5 	-7.74014
1.28125 	-0.921875 	0.5 	-7.84594
1.29688 	-0.921875 	0.5 	-7.99874
1.3125 	-0.921875 	0.5 	-8.13973
1.32812 	-0.921875 	0.5 	-8.31379
1.34375 	-0.921875 	0.5 	-8.46562
1.35938 	-0.921875 	0.5 	-8.58431
1.375 	-0.921875 	0.5 	-8.71991
1.39062 	-0.921875 	0.5 	-8.85551
1.40625 	-0.921875 	0.5 	-8.99947
1.42188 	-0.921875 	0.5 	-9.20341
1.4375 	-0.921875 	0.5 	-9.40308
1.45312 	-0.921875 	0.5 	-9.49755
1.46875 	-0.921875 	0.5 	-9.70073
1.48438 	-0.921875 	0.5 	-9.83047
-0.5 	-0.90625 	0.5 	-4.58003
-0.484375 	-0.90625 	0.5 	-4.45468
-0.46875 	-0.90625 	0.5 	-4.35432
-0.453125 	-0.90625 	0.5 	-4.19683
-0.4375 	-0.90625 	0.5 	-4.19091
-0.421875 	-0.90625 	0.5 	-4.1335
-0.40625 	-0.90625 	0.5 	-4.08171
-0.390625 	-0.90625 	0.5 	-4.0198
-0.375 	-0.90625 	0.5 	-3.96687
-0.359375 	-0.90625 	0.5 	-3.95716
-0.34375 	-0.90625 	0.5 	-3.90888
-0.328125 	-0.90625 	0.5 	-3.87399
-0.3125 	-0.90625 	0.5 	-3.82451
-0.296875 	-0.90625 	0.5 	-3.75895
-0.28125 	-0.90625 	0.5 	-3.78515
-0.265625 	-0.90625 	0.5 	-3.87126
-0.25 	-0.90625 	0.5 	-3.84716
-0.234375 	-0.90625 	0.5 	-3.85721
-0.21875 	-0.90625 	0.5 	-3.88356
-0.203125 	-0.90625 	0.5 	-3.8918
-0.1875 	-0.90625 	0.5 	-3.92823
-0.171875 	-0.90625 	0.5 	-3.97513
-0.15625 	-0.90625 	0.5 	-4.01201
-0.140625 	-0.90625 	0.5 	-4.03205
-0.125 	-0.90625 	0.5 	-4.0763
-0.109375 	-0.90625 	0.5 	-4.16497
-0.09375 	-0.90625 	0.5 	-4.24788
-0.078125 	-0.90625 	0.5 	-4.32288
-0.0625 	-0.90625 	0.5 	-4.41379
-0.046875 	-0.90625 	0.5 	-4.49643
-0.03125 	-0.90625 	0.5 	-4.56801
-0.015625 	-0.90625 	0.5 	-4.63384
0 	-0.90625 	0.5 	-4.70868
0.015625 	-0.90625 	0.5 	-4.79812
0.03125 	-0.90625 	0.5 	-4.82573
0.046875 	-0.90625 	0.5 	-4.93973
0.0625 	-0.90625 	0.5 	-5.04917
0.078125 	-0.90625 	0.5 	-5.15458
0.09375 	-0.90625 	0.5 	-5.2419
0.109375 	-0.90625 	0.5 	-5.3125
0.125 	-0.90625 	0.5 	-5.40111
0.140625 	-0.90625 	0.5 	-5.47266
0.15625 	-0.90625 	0.5 	-5.5501
0.171875 	-0.90625 	0.5 	-5.59605
0.1875 	-0.90625 	0.5 	-5.66678
0.203125 	-0.90625 	0.5 	-5.74216
0.21875 	-0.90625 	0.5 	-5.80063
0.234375 	-0.90625 	0.5 	-5.8519
0.25 	-0.90625 	0.5 	-5.90416
0.265625 	-0.90625 	0.5 	-5.95272
0.28125 	-0.90625 	0.5 	-5.99498
0.296875 	-0.90625 	0.5 	-6.03671
0.3125 	-0.90625 	0.5 	-6.06797
0.328125 	-0.90625 	0.5 	-6.10876
0.34375 	-0.90625 	0.5 	-6.13497
0.359375 	-0.90625 	0.5 	-6.15638
0.375 	-0.90625 	0.5 	-6.16858
0.390625 	-0.90625 	0.5 	-6.17273
0.40625 	-0.90625 	0.5 	-6.18147
0.421875 	-0.90625 	0.5 	-6.19502
0.4375 	-0.90625 	0.5 	-6.20489
0.453125 	-0.90625 	0.5 	-6.19876
0.46875 	-0.90625 	0.5 	-6.19832
0.484375 	-0.90625 	0.5 	-6.18288
0.5 	-0.90625 	0.5 	-6.17751
0.515625 	-0.90625 	0.5 	-6.1631
0.53125 	-0.90625 	0.5 	-6.15301
0.546875 	-0.90625 	0.5 	-6.14137
0.5625 	-0.90625 	0.5 	-6.12441
0.578125 	-0.90625 	0.5 	-6.11046
0.59375 	-0.90625 	0.5 	-6.06321
0.609375 	-0.90625 	0.5 	-6.06771
0.625 	-0.90625 	0.5 	-6.04879
0.640625 	-0.90625 	0.5 	-6.02897
0.65625 	-0.90625 	0.5 	-6.01025
0.671875 	-0.90625 	0.5 	-5.97608
0.6875 	-0.90625 	0.5 	-5.97398
0.703125 	-0.90625 	0.5 	-5.96705
0.71875 	-0.90625 	0.5 	-5.94012
0.734375 	-0.90625 	0.5 	-5.90417
0.75 	-0.90625 	0.5 	-5.8983
0.765625 	-0.90625 	0.5 	-5.90868
0.78125 	-0.90625 	0.5 	-5.88624
0.796875 	-0.90625 	0.5 	-5.88246
0.8125 	-0.90625 	0.5 	-5.89668
0.828125 	-0.90625 	0.5 	-5.89382
0.84375 	-0.90625 	0.5 	-5.89435
0.859375 	-0.90625 	0.5 	-5.89948
0.875 	-0.90625 	0.5 	-5.92181
0.890625 	-0.90625 	0.5 	-5.90163
0.90625 	-0.90625 	0.5 	-5.90764
0.921875 	-0.90625 	0.5 	-5.94279
0.9375 	-0.90625 	0.5 	-6.03166
0.953125 	-0.90625 	0.5 	-6.0576
0.96875 	-0.90625 	0.5 	-6.07413
0.984375 	-0.90625 	0.5 	-6.11198
1 	-0.90625 	0.5 	-6.11425
1.01562 	-0.90625 	0.5 	-6.14035
1.03125 	-0.90625 	0.5 	-6.20699
1.04688 	-0.90625 	0.5 	-6.28926
1.0625 	-0.90625 	0.5 	-6.37905
1.07812 	-0.90625 	0.5 	-6.49724
1.09375 	-0.90625 	0.5 	-6.54668
1.10938 	-0.90625 	0.5 	-6.63568
1.125 	-0.90625 	0.5 	-6.6995
1.14062 	-0.90625 	0.5 	-6.76704
1.15625 	-0.90625 	0.5 	-6.85771
1.17188 	-0.90625 	0.5 	-6.94787
1.1875 	-0.90625 	0.5 	-7.04387
1.20312 	-0.90625 	0.5 	-7.15389
1.21875 	-0.90625 	0.5 	-7.26367
1.23438 	-0.90625 	0.5 	-7.35609
1.25 	-0.90625 	0.5 	-7.4609
1.26562 	-0.90625 	0.5 	-7.58979
1.28125 	-0.90625 	0.5 	-7.72029
1.29688 	-0.90625 	0.5 	-7.85718
1.3125 	-0.90625 	0.5 	-7.99612
1.32812 	-0.90625 	0.5 	-8.19605
1.34375 	-0.90625 	0.5 	-8.37843
1.35938 	-0.90625 	0.5 	-8.48535
1.375 	-0.90625 	0.5 	-8.61648
1.39062 	-0.90625 	0.5 	-8.75269
1.40625 	-0.90625 	0.5 	-8.90127
1.42188 	-0.90625 	0.5 	-9.08098
1.4375 	-0.90625 	0.5 	-9.30024
1.45312 	-0.90625 	0.5 	-9.39923
1.46875 	-0.90625 	0.5 	-9.5874
1.48438 	-0.90625 	0.5 	-9.7128
-0.5 	-0.890625 	0.5 	-4.35633
-0.484375 	-0.890625 	0.5 	-4.24512
-0.46875 	-0.890625 	0.5 	-4.14275
-0.453125 	-0.890625 	0.5 	-4.05295
-0.4375 	-0.890625 	0.5 	-3.96471
-0.421875 	-0.890625 	0.5 	-3.9027
-0.40625 	-0.890625 	0.5 	-3.86618
-0.390625 	-0.890625 	0.5 	-3.80821
-0.375 	-0.890625 	0.5 	-3.73813
-0.359375 	-0.890625 	0.5 	-3.73777
-0.34375 	-0.890625 	0.5 	-3.72264
-0.328125 	-0.890625 	0.5 	-3.63871
-0.3125 	-0.890625 	0.5 	-3.59227
-0.296875 	-0.890625 	0.5 	-3.54578
-0.28125 	-0.890625 	0.5 	-3.55942
-0.265625 	-0.890625 	0.5 	-3.62096
-0.25 	-0.890625 	0.5 	-3.66011
-0.234375 	-0.890625 	0.5 	-3.63958
-0.21875 	-0.890625 	0.5 	-3.66676
-0.203125 	-0.890625 	0.5 	-3.6715
-0.1875 	-0.890625 	0.5 	-3.6459
-0.171875 	-0.890625 	0.5 	-3.76156
-0.15625 	-0.890625 	0.5 	-3.83472
-0.140625 	-0.890625 	0.5 	-3.90411
-0.125 	-0.890625 	0.5 	-3.9404
-0.109375 	-0.890625 	0.5 	-4.00076