-0.5 	-1 	0.5 	5.91353
-0.484375 	-1 	0.5 	6.08869
-0.46875 	-1 	0.5 	6.23575
-0.453125 	-1 	0.5 	6.3801
-0.4375 	-1 	0.5 	6.55105
-0.421875 	-1 	0.5 	6.70461
-0.40625 	-1 	0.5 	6.82554
-0.390625 	-1 	0.5 	6.94614
-0.375 	-1 	0.5 	7.00341
-0.359375 	-1 	0.5 	7.04364
-0.34375 	-1 	0.5 	7.15987
-0.328125 	-1 	0.5 	7.27502
-0.3125 	-1 	0.5 	7.33894
-0.296875 	-1 	0.5 	7.41779
-0.28125 	-1 	0.5 	7.51774
-0.265625 	-1 	0.5 	7.54518
-0.25 	-1 	0.5 	7.64281
-0.234375 	-1 	0.5 	7.7143
-0.21875 	-1 	0.5 	7.80756
-0.203125 	-1 	0.5 	7.84316
-0.1875 	-1 	0.5 	7.88443
-0.171875 	-1 	0.5 	7.90858
-0.15625 	-1 	0.5 	7.89965
-0.140625 	-1 	0.5 	7.89736
-0.125 	-1 	0.5 	7.90356
-0.109375 	-1 	0.5 	7.92882
-0.09375 	-1 	0.5 	7.97275
-0.078125 	-1 	0.5 	7.95884
-0.0625 	-1 	0.5 	7.96485
-0.046875 	-1 	0.5 	7.95435
-0.03125 	-1 	0.5 	7.94385
-0.015625 	-1 	0.5 	7.87895
0 	-1 	0.5 	7.82081
0.015625 	-1 	0.5 	7.78643
0.03125 	-1 	0.5 	7.79155
0.046875 	-1 	0.5 	7.74394
0.0625 	-1 	0.5 	7.67991
0.078125 	-1 	0.5 	7.62037
0.09375 	-1 	0.5 	7.56924
0.109375 	-1 	0.5 	7.50425
0.125 	-1 	0.5 	7.37177
0.140625 	-1 	0.5 	7.29814
0.15625 	-1 	0.5 	7.24862
0.171875 	-1 	0.5 	7.21043
0.1875 	-1 	0.5 	7.17484
0.203125 	-1 	0.5 	7.13483
0.21875 	-1 	0.5 	6.99227
0.234375 	-1 	0.5 	6.88984
0.25 	-1 	0.5 	6.77198
0.265625 	-1 	0.5 	6.83968
0.28125 	-1 	0.5 	6.79262
0.296875 	-1 	0.5 	6.6211
0.3125 	-1 	0.5 	6.54994
0.328125 	-1 	0.5 	6.48604
0.34375 	-1 	0.5 	6.39227
0.359375 	-1 	0.5 	6.27814
0.375 	-1 	0.5 	6.18737
0.390625 	-1 	0.5 	6.10947
0.40625 	-1 	0.5 	6.02194
0.421875 	-1 	0.5 	5.96672
0.4375 	-1 	0.5 	5.90296
0.453125 	-1 	0.5 	5.83888
0.46875 	-1 	0.5 	5.74918
0.484375 	-1 	0.5 	5.6568
0.5 	-1 	0.5 	5.56577
0.515625 	-1 	0.5 	5.49986
0.53125 	-1 	0.5 	5.43344
0.546875 	-1 	0.5 	5.3732
0.5625 	-1 	0.5 	5.30545
0.578125 	-1 	0.5 	5.24303
0.59375 	-1 	0.5 	5.19691
0.609375 	-1 	0.5 	5.13525
0.625 	-1 	0.5 	5.06775
0.640625 	-1 	0.5 	5.00887
0.65625 	-1 	0.5 	4.95144
0.671875 	-1 	0.5 	4.89937
0.6875 	-1 	0.5 	4.85108
0.703125 	-1 	0.5 	4.79721
0.71875 	-1 	0.5 	4.74764
0.734375 	-1 	0.5 	4.66433
0.75 	-1 	0.5 	4.6371
0.765625 	-1 	0.5 	4.616
0.78125 	-1 	0.5 	4.58788
0.796875 	-1 	0.5 	4.55975
0.8125 	-1 	0.5 	4.50768
0.828125 	-1 	0.5 	4.46448
0.84375 	-1 	0.5 	4.40191
0.859375 	-1 	0.5 	4.35544
0.875 	-1 	0.5 	4.32056
0.890625 	-1 	0.5 	4.28991
0.90625 	-1 	0.5 	4.25626
0.921875 	-1 	0.5 	4.18948
0.9375 	-1 	0.5 	4.13588
0.953125 	-1 	0.5 	4.08764
0.96875 	-1 	0.5 	4.04459
0.984375 	-1 	0.5 	3.97933
1 	-1 	0.5 	3.89734
1.01562 	-1 	0.5 	3.88662
1.03125 	-1 	0.5 	3.82652
1.04688 	-1 	0.5 	3.7646
1.0625 	-1 	0.5 	3.71828
1.07812 	-1 	0.5 	3.64161
1.09375 	-1 	0.5 	3.60025
1.10938 	-1 	0.5 	3.49254
1.125 	-1 	0.5 	3.40322
1.14062 	-1 	0.5 	3.34406
1.15625 	-1 	0.5 	3.25208
1.17188 	-1 	0.5 	3.17422
1.1875 	-1 	0.5 	3.04346
1.20312 	-1 	0.5 	2.92544
1.21875 	-1 	0.5 	2.82112
1.23438 	-1 	0.5 	2.775
1.25 	-1 	0.5 	2.72938
1.26562 	-1 	0.5 	2.59535
1.28125 	-1 	0.5 	2.48087
1.29688 	-1 	0.5 	2.34155
1.3125 	-1 	0.5 	2.1957
1.32812 	-1 	0.5 	2.05621
1.34375 	-1 	0.5 	1.95056
1.35938 	-1 	0.5 	1.85576
1.375 	-1 	0.5 	1.72853
1.39062 	-1 	0.5 	1.58713
1.40625 	-1 	0.5 	1.43336
1.42188 	-1 	0.5 	1.2987
1.4375 	-1 	0.5 	1.16416
1.45312 	-1 	0.5 	1.01994
1.46875 	-1 	0.5 	0.881839
1.48438 	-1 	0.5 	0.72229
-0.5 	-0.984375 	0.5 	6.11531
-0.484375 	-0.984375 	0.5 	6.28058
-0.46875 	-0.984375 	0.5 	6.44317
-0.453125 	-0.984375 	0.5 	6.60664
-0.4375 	-0.984375 	0.5 	6.76955
-0.421875 	-0.984375 	0.5 	6.93246
-0.40625 	-0.984375 	0.5 	7.019
-0.390625 	-0.984375 	0.5 	7.07277
-0.375 	-0.984375 	0.5 	7.12654
-0.359375 	-0.984375 	0.5 	7.24116
-0.34375 	-0.984375 	0.5 	7.33861
-0.328125 	-0.984375 	0.5 	7.53064
-0.3125 	-0.984375 	0.5 	7.58198
-0.296875 	-0.984375 	0.5 	7.67621
-0.28125 	-0.984375 	0.5 	7.78517
-0.265625 	-0.984375 	0.5 	7.80875
-0.25 	-0.984375 	0.5 	7.78566
-0.234375 	-0.984375 	0.5 	7.93326
-0.21875 	-0.984375 	0.5 	8.04734
-0.203125 	-0.984375 	0.5 	8.09186
-0.1875 	-0.984375 	0.5 	8.13799
-0.171875 	-0.984375 	0.5 	8.14764
-0.15625 	-0.984375 	0.5 	8.13657
-0.140625 	-0.984375 	0.5 	8.12972
-0.125 	-0.984375 	0.5 	8.12582
-0.109375 	-0.984375 	0.5 	8.15005
-0.09375 	-0.984375 	0.5 	8.15692
-0.078125 	-0.984375 	0.5 	8.18015
-0.0625 	-0.984375 	0.5 	8.20712
-0.046875 	-0.984375 	0.5 	8.21255
-0.03125 	-0.984375 	0.5 	8.14927
-0.015625 	-0.984375 	0.5 	8.09283
0 	-0.984375 	0.5 	8.04062
0.015625 	-0.984375 	0.5 	7.95894
0.03125 	-0.984375 	0.5 	7.99351
0.046875 	-0.984375 	0.5 	8.05796
0.0625 	-0.984375 	0.5 	7.91817
0.078125 	-0.984375 	0.5 	7.82208
0.09375 	-0.984375 	0.5 	7.75701
0.109375 	-0.984375 	0.5 	7.67999
0.125 	-0.984375 	0.5 	7.53396
0.140625 	-0.984375 	0.5 	7.50932
0.15625 	-0.984375 	0.5 	7.43024
0.171875 	-0.984375 	0.5 	7.45783
0.1875 	-0.984375 	0.5 	7.37225
0.203125 	-0.984375 	0.5 	7.30575
0.21875 	-0.984375 	0.5 	7.13779
0.234375 	-0.984375 	0.5 	7.03494
0.25 	-0.984375 	0.5 	6.99012
0.265625 	-0.984375 	0.5 	6.93651
0.28125 	-0.984375 	0.5 	6.88927
0.296875 	-0.984375 	0.5 	6.76214
0.3125 	-0.984375 	0.5 	6.6801
0.328125 	-0.984375 	0.5 	6.6208
0.34375 	-0.984375 	0.5 	6.47163
0.359375 	-0.984375 	0.5 	6.38106
0.375 	-0.984375 	0.5 	6.30135
0.390625 	-0.984375 	0.5 	6.2262
0.40625 	-0.984375 	0.5 	6.15526
0.421875 	-0.984375 	0.5 	6.03455
0.4375 	-0.984375 	0.5 	5.97853
0.453125 	-0.984375 	0.5 	5.92044
0.46875 	-0.984375 	0.5 	5.83226
0.484375 	-0.984375 	0.5 	5.77053
0.5 	-0.984375 	0.5 	5.68081
0.515625 	-0.984375 	0.5 	5.61832
0.53125 	-0.984375 	0.5 	5.53985
0.546875 	-0.984375 	0.5 	5.46465
0.5625 	-0.984375 	0.5 	5.40312
0.578125 	-0.984375 	0.5 	5.3427
0.59375 	-0.984375 	0.5 	5.28041
0.609375 	-0.984375 	0.5 	5.22331
0.625 	-0.984375 	0.5 	5.15353
0.640625 	-0.984375 	0.5 	5.09764
0.65625 	-0.984375 	0.5 	5.04184
0.671875 	-0.984375 	0.5 	4.99164
0.6875 	-0.984375 	0.5 	4.93788
0.703125 	-0.984375 	0.5 	4.87237
0.71875 	-0.984375 	0.5 	4.82344
0.734375 	-0.984375 	0.5 	4.78099
0.75 	-0.984375 	0.5 	4.76098
0.765625 	-0.984375 	0.5 	4.73307
0.78125 	-0.984375 	0.5 	4.69874
0.796875 	-0.984375 	0.5 	4.66284
0.8125 	-0.984375 	0.5 	4.60806
0.828125 	-0.984375 	0.5 	4.56481
0.84375 	-0.984375 	0.5 	4.52638
0.859375 	-0.984375 	0.5 	4.47699
0.875 	-0.984375 	0.5 	4.44535
0.890625 	-0.984375 	0.5 	4.40462
0.90625 	-0.984375 	0.5 	4.35907
0.921875 	-0.984375 	0.5 	4.28016
0.9375 	-0.984375 	0.5 	4.26069
0.953125 	-0.984375 	0.5 	4.16319
0.96875 	-0.984375 	0.5 	4.14225
0.984375 	-0.984375 	0.5 	4.11026
1 	-0.984375 	0.5 	4.05945
1.01562 	-0.984375 	0.5 	4.00864
1.03125 	-0.984375 	0.5 	3.95782
1.04688 	-0.984375 	0.5 	3.90127
1.0625 	-0.984375 	0.5 	3.84561
1.07812 	-0.984375 	0.5 	3.78995
1.09375 	-0.984375 	0.5 	3.7245
1.10938 	-0.984375 	0.5 	3.60621
1.125 	-0.984375 	0.5 	3.51849
1.14062 	-0.984375 	0.5 	3.45779
1.15625 	-0.984375 	0.5 	3.38164
1.17188 	-0.984375 	0.5 	3.33527
1.1875 	-0.984375 	0.5 	3.15372
1.20312 	-0.984375 	0.5 	3.08988
1.21875 	-0.984375 	0.5 	2.93792
1.23438 	-0.984375 	0.5 	2.91919
1.25 	-0.984375 	0.5 	2.90377
1.26562 	-0.984375 	0.5 	2.7594
1.28125 	-0.984375 	0.5 	2.61325
1.29688 	-0.984375 	0.5 	2.46242
1.3125 	-0.984375 	0.5 	2.30964
1.32812 	-0.984375 	0.5 	2.18669
1.34375 	-0.984375 	0.5 	2.13468
1.35938 	-0.984375 	0.5 	1.99007
1.375 	-0.984375 	0.5 	1.88606
1.39062 	-0.984375 	0.5 	1.72472
1.40625 	-0.984375 	0.5 	1.56345
1.42188 	-0.984375 	0.5 	1.43517
1.4375 	-0.984375 	0.5 	1.24993
1.45312 	-0.984375 	0.5 	1.11846
1.46875 	-0.984375 	0.5 	1.00474
1.48438 	-0.984375 	0.5 	0.839947
-0.5 	-0.96875 	0.5 	6.27275
-0.484375 	-0.96875 	0.5 	6.47321
-0.46875 	-0.96875 	0.5 	6.65925
-0.453125 	-0.96875 	0.5 	6.84324
-0.4375 	-0.96875 	0.5 	7.0064
-0.421875 	-0.96875 	0.5 	7.14627
-0.40625 	-0.96875 	0.5 	7.24411
-0.390625 	-0.96875 	0.5 	7.14521
-0.375 	-0.96875 	0.5 	7.29916
-0.359375 	-0.96875 	0.5 	7.43884
-0.34375 	-0.96875 	0.5 	7.56178
-0.328125 	-0.96875 	0.5 	7.70319
-0.3125 	-0.96875 	0.5 	7.8376
-0.296875 	-0.96875 	0.5 	7.94053
-0.28125 	-0.96875 	0.5 	8.02609
-0.265625 	-0.96875 	0.5 	8.05876
-0.25 	-0.96875 	0.5 	8.08525
-0.234375 	-0.96875 	0.5 	8.21483
-0.21875 	-0.96875 	0.5 	8.28744
-0.203125 	-0.96875 	0.5 	8.32978
-0.1875 	-0.96875 	0.5 	8.35627
-0.171875 	-0.96875 	0.5 	8.3867
-0.15625 	-0.96875 	0.5 	8.37759
-0.140625 	-0.96875 	0.5 	8.37178
-0.125 	-0.96875 	0.5 	8.3692
-0.109375 	-0.96875 	0.5 	8.39736
-0.09375 	-0.96875 	0.5 	8.37191
-0.078125 	-0.96875 	0.5 	8.39641
-0.0625 	-0.96875 	0.5 	8.41532
-0.046875 	-0.96875 	0.5 	8.38796
-0.03125 	-0.96875 	0.5 	8.38889
-0.015625 	-0.96875 	0.5 	8.33445
0 	-0.96875 	0.5 	8.14435
0.015625 	-0.96875 	0.5 	8.20229
0.03125 	-0.96875 	0.5 	8.19548
0.046875 	-0.96875 	0.5 	8.15147
0.0625 	-0.96875 	0.5 	8.16021
0.078125 	-0.96875 	0.5 	8.04694
0.09375 	-0.96875 	0.5 	7.92067
0.109375 	-0.96875 	0.5 	7.86787
0.125 	-0.96875 	0.5 	7.78726
0.140625 	-0.96875 	0.5 	7.69752
0.15625 	-0.96875 	0.5 	7.62949
0.171875 	-0.96875 	0.5 	7.60067
0.1875 	-0.96875 	0.5 	7.57177
0.203125 	-0.96875 	0.5 	7.45697
0.21875 	-0.96875 	0.5 	7.33071
0.234375 	-0.96875 	0.5 	7.23409
0.25 	-0.96875 	0.5 	7.16396
0.265625 	-0.96875 	0.5 	7.06653
0.28125 	-0.96875 	0.5 	7.0184
0.296875 	-0.96875 	0.5 	6.89421
0.3125 	-0.96875 	0.5 	6.8294
0.328125 	-0.96875 	0.5 	6.74898
0.34375 	-0.96875 	0.5 	6.63414
0.359375 	-0.96875 	0.5 	6.53081
0.375 	-0.96875 	0.5 	6.43718
0.390625 	-0.96875 	0.5 	6.38238
0.40625 	-0.96875 	0.5 	6.24821
0.421875 	-0.96875 	0.5 	6.16044
0.4375 	-0.96875 	0.5 	6.03958
0.453125 	-0.96875 	0.5 	6.00392
0.46875 	-0.96875 	0.5 	5.9324
0.484375 	-0.96875 	0.5 	5.85668
0.5 	-0.96875 	0.5 	5.78378
0.515625 	-0.96875 	0.5 	5.70425
0.53125 	-0.96875 	0.5 	5.62437
0.546875 	-0.96875 	0.5 	5.55475
0.5625 	-0.96875 	0.5 	5.49142
0.578125 	-0.96875 	0.5 	5.4622
0.59375 	-0.96875 	0.5 	5.37682
0.609375 	-0.96875 	0.5 	5.30825
0.625 	-0.96875 	0.5 	5.24451
0.640625 	-0.96875 	0.5 	5.18789
0.65625 	-0.96875 	0.5 	5.13671
0.671875 	-0.96875 	0.5 	5.08107
0.6875 	-0.96875 	0.5 	5.02648
0.703125 	-0.96875 	0.5 	4.98141
0.71875 	-0.96875 	0.5 	4.93855
0.734375 	-0.96875 	0.5 	4.89602
0.75 	-0.96875 	0.5 	4.86427
0.765625 	-0.96875 	0.5 	4.8317
0.78125 	-0.96875 	0.5 	4.79961
0.796875 	-0.96875 	0.5 	4.76088
0.8125 	-0.96875 	0.5 	4.71669
0.828125 	-0.96875 	0.5 	4.67126
0.84375 	-0.96875 	0.5 	4.62583
0.859375 	-0.96875 	0.5 	4.59201
0.875 	-0.96875 	0.5 	4.54095
0.890625 	-0.96875 	0.5 	4.49982
0.90625 	-0.96875 	0.5 	4.50406
0.921875 	-0.96875 	0.5 	4.43318
0.9375 	-0.96875 	0.5 	4.36957
0.953125 	-0.96875 	0.5 	4.32508
0.96875 	-0.96875 	0.5 	4.27292
0.984375 	-0.96875 	0.5 	4.25336
1 	-0.96875 	0.5 	4.25173
1.01562 	-0.96875 	0.5 	4.15227
1.03125 	-0.96875 	0.5 	4.08885
1.04688 	-0.96875 	0.5 	4.03696
1.0625 	-0.96875 	0.5 	3.9497
1.07812 	-0.96875 	0.5 	3.90561
1.09375 	-0.96875 	0.5 	3.83288
1.10938 	-0.96875 	0.5 	3.74304
1.125 	-0.96875 	0.5 	3.6551
1.14062 	-0.96875 	0.5 	3.58905
1.15625 	-0.96875 	0.5 	3.54032
1.17188 	-0.96875 	0.5 	3.46018
1.1875 	-0.96875 	0.5 	3.27642
1.20312 	-0.96875 	0.5 	3.16467
1.21875 	-0.96875 	0.5 	3.11382
1.23438 	-0.96875 	0.5 	3.06381
1.25 	-0.96875 	0.5 	2.9334
1.26562 	-0.96875 	0.5 	2.88441
1.28125 	-0.96875 	0.5 	2.74696
1.29688 	-0.96875 	0.5 	2.60003
1.3125 	-0.96875 	0.5 	2.46442
1.32812 	-0.96875 	0.5 	2.31982
1.34375 	-0.96875 	0.5 	2.25527
1.35938 	-0.96875 	0.5 	2.12088
1.375 	-0.96875 	0.5 	2.01634
1.39062 	-0.96875 	0.5 	1.86839
1.40625 	-0.96875 	0.5 	1.6956
1.42188 	-0.96875 	0.5 	1.54148
1.4375 	-0.96875 	0.5 	1.40741
1.45312 	-0.96875 	0.5 	1.26306
1.46875 	-0.96875 	0.5 	1.12367
1.48438 	-0.96875 	0.5 	0.949237
-0.5 	-0.953125 	0.5 	6.49386
-0.484375 	-0.953125 	0.5 	6.68195
-0.46875 	-0.953125 	0.5 	6.86357
-0.453125 	-0.953125 	0.5 	7.06225
-0.4375 	-0.953125 	0.5 	7.19664
-0.421875 	-0.953125 	0.5 	7.36232
-0.40625 	-0.953125 	0.5 	7.26692
-0.390625 	-0.953125 	0.5 	7.54629
-0.375 	-0.953125 	0.5 	7.39766
-0.359375 	-0.953125 	0.5 	7.74536
-0.34375 	-0.953125 	0.5 	7.98428
-0.328125 	-0.953125 	0.5 	8.03218
-0.3125 	-0.953125 	0.5 	8.09588
-0.296875 	-0.953125 	0.5 	8.15759
-0.28125 	-0.953125 	0.5 	8.21907
-0.265625 	-0.953125 	0.5 	8.28166
-0.25 	-0.953125 	0.5 	8.36083
-0.234375 	-0.953125 	0.5 	8.46757
-0.21875 	-0.953125 	0.5 	8.51892
-0.203125 	-0.953125 	0.5 	8.58911
-0.1875 	-0.953125 	0.5 	8.60467
-0.171875 	-0.953125 	0.5 	8.62636
-0.15625 	-0.953125 	0.5 	8.63083
-0.140625 	-0.953125 	0.5 	8.62916
-0.125 	-0.953125 	0.5 	8.64368
-0.109375 	-0.953125 	0.5 	8.68176
-0.09375 	-0.953125 	0.5 	8.70271
-0.078125 	-0.953125 	0.5 	8.66196
-0.0625 	-0.953125 	0.5 	8.63079
-0.046875 	-0.953125 	0.5 	8.62047
-0.03125 	-0.953125 	0.5 	8.61655
-0.015625 	-0.953125 	0.5 	8.57607
0 	-0.953125 	0.5 	8.49116
0.015625 	-0.953125 	0.5 	8.47375
0.03125 	-0.953125 	0.5 	8.41473
0.046875 	-0.953125 	0.5 	8.35138
0.0625 	-0.953125 	0.5 	8.30813
0.078125 	-0.953125 	0.5 	8.27396
0.09375 	-0.953125 	0.5 	8.16961
0.109375 	-0.953125 	0.5 	8.10033
0.125 	-0.953125 	0.5 	8.01698
0.140625 	-0.953125 	0.5 	7.92755
0.15625 	-0.953125 	0.5 	7.85687
0.171875 	-0.953125 	0.5 	7.8074
0.1875 	-0.953125 	0.5 	7.70474
0.203125 	-0.953125 	0.5 	7.5957
0.21875 	-0.953125 	0.5 	7.49357
0.234375 	-0.953125 	0.5 	7.41443
0.25 	-0.953125 	0.5 	7.31341
0.265625 	-0.953125 	0.5 	7.20766
0.28125 	-0.953125 	0.5 	7.11964
0.296875 	-0.953125 	0.5 	7.03047
0.3125 	-0.953125 	0.5 	6.94989
0.328125 	-0.953125 	0.5 	6.86571
0.34375 	-0.953125 	0.5 	6.75294
0.359375 	-0.953125 	0.5 	6.63234
0.375 	-0.953125 	0.5 	6.5442
0.390625 	-0.953125 	0.5 	6.4699
0.40625 	-0.953125 	0.5 	6.33577
0.421875 	-0.953125 	0.5 	6.24123
0.4375 	-0.953125 	0.5 	6.17714
0.453125 	-0.953125 	0.5 	6.13193
0.46875 	-0.953125 	0.5 	6.03577
0.484375 	-0.953125 	0.5 	5.95994
0.5 	-0.953125 	0.5 	5.8774
0.515625 	-0.953125 	0.5 	5.79275
0.53125 	-0.953125 	0.5 	5.7194
0.546875 	-0.953125 	0.5 	5.64826
0.5625 	-0.953125 	0.5 	5.58305
0.578125 	-0.953125 	0.5 	5.52148
0.59375 	-0.953125 	0.5 	5.45916
0.609375 	-0.953125 	0.5 	5.39777
0.625 	-0.953125 	0.5 	5.32979
0.640625 	-0.953125 	0.5 	5.27798
0.65625 	-0.953125 	0.5 	5.22269
0.671875 	-0.953125 	0.5 	5.17804
0.6875 	-0.953125 	0.5 	5.11631
0.703125 	-0.953125 	0.5 	5.07093
0.71875 	-0.953125 	0.5 	5.02752
0.734375 	-0.953125 	0.5 	4.99984
0.75 	-0.953125 	0.5 	4.96017
0.765625 	-0.953125 	0.5 	4.92767
0.78125 	-0.953125 	0.5 	4.88068
0.796875 	-0.953125 	0.5 	4.83729
0.8125 	-0.953125 	0.5 	4.81239
0.828125 	-0.953125 	0.5 	4.75873
0.84375 	-0.953125 	0.5 	4.72949
0.859375 	-0.953125 	0.5 	4.679
0.875 	-0.953125 	0.5 	4.66584
0.890625 	-0.953125 	0.5 	4.61342
0.90625 	-0.953125 	0.5 	4.61984
0.921875 	-0.953125 	0.5 	4.5727
0.9375 	-0.953125 	0.5 	4.50709
0.953125 	-0.953125 	0.5 	4.46116
0.96875 	-0.953125 	0.5 	4.4143
0.984375 	-0.953125 	0.5 	4.37925
1 	-0.953125 	0.5 	4.34492
1.01562 	-0.953125 	0.5 	4.2987
1.03125 	-0.953125 	0.5 	4.21783
1.04688 	-0.953125 	0.5 	4.07554
1.0625 	-0.953125 	0.5 	4.12236
1.07812 	-0.953125 	0.5 	4.06243
1.09375 	-0.953125 	0.5 	3.9333
1.10938 	-0.953125 	0.5 	3.86905
1.125 	-0.953125 	0.5 	3.78335
1.14062 	-0.953125 	0.5 	3.71613
1.15625 	-0.953125 	0.5 	3.63094
1.17188 	-0.953125 	0.5 	3.5565
1.1875 	-0.953125 	0.5 	3.45928
1.20312 	-0.953125 	0.5 	3.37009
1.21875 	-0.953125 	0.5 	3.27672
1.23438 	-0.953125 	0.5 	3.15851
1.25 	-0.953125 	0.5 	3.09523
1.26562 	-0.953125 	0.5 	3.03834
1.28125 	-0.953125 	0.5 	2.87785
1.29688 	-0.953125 	0.5 	2.71904
1.3125 	-0.953125 	0.5 	2.59074
1.32812 	-0.953125 	0.5 	2.47123
1.34375 	-0.953125 	0.5 	2.3557
1.35938 	-0.953125 	0.5 	2.21375
1.375 	-0.953125 	0.5 	2.09957
1.39062 	-0.953125 	0.5 	1.98569
1.40625 	-0.953125 	0.5 	1.82047
1.42188 	-0.953125 	0.5 	1.64367
1.4375 	-0.953125 	0.5 	1.47308
1.45312 	-0.953125 	0.5 	1.37827
1.46875 	-0.953125 	0.5 	1.21164
1.48438 	-0.953125 	0.5 	1.04179
-0.5 	-0.9375 	0.5 	6.7374
-0.484375 	-0.9375 	0.5 	6.88373
-0.46875 	-0.9375 	0.5 	7.06523
-0.453125 	-0.9375 	0.5 	7.25818
-0.4375 	-0.9375 	0.5 	7.40901
-0.421875 	-0.9375 	0.5 	7.5786
-0.40625 	-0.9375 	0.5 	7.51678
-0.390625 	-0.9375 	0.5 	7.56989
-0.375 	-0.9375 	0.5 	7.78255
-0.359375 	-0.9375 	0.5 	8.06629
-0.34375 	-0.9375 	0.5 	8.14122
-0.328125 	-0.9375 	0.5 	8.29022
-0.3125 	-0.9375 	0.5 	8.33262
-0.296875 	-0.9375 	0.5 	8.43271
-0.28125 	-0.9375 	0.5 	8.47916
-0.265625 	-0.9375 	0.5 	8.57092
-0.25 	-0.9375 	0.5 	8.65701
-0.234375 	-0.9375 	0.5 	8.67428
-0.21875 	-0.9375 	0.5 	8.7504
-0.203125 	-0.9375 	0.5 	8.78276
-0.1875 	-0.9375 	0.5 	8.84248
-0.171875 	-0.9375 	0.5 	8.8962
-0.15625 	-0.9375 	0.5 	8.92486
-0.140625 	-0.9375 	0.5 	8.92674
-0.125 	-0.9375 	0.5 	8.92624
-0.109375 	-0.9375 	0.5 	8.94821
-0.09375 	-0.9375 	0.5 	8.92022
-0.078125 	-0.9375 	0.5 	8.90538
-0.0625 	-0.9375 	0.5 	8.90317
-0.046875 	-0.9375 	0.5 	8.90595
-0.03125 	-0.9375 	0.5 	8.87353
-0.015625 	-0.9375 	0.5 	8.83095
0 	-0.9375 	0.5 	8.75042
0.015625 	-0.9375 	0.5 	8.68683
0.03125 	-0.9375 	0.5 	8.64776
0.046875 	-0.9375 	0.5 	8.57798
0.0625 	-0.9375 	0.5 	8.50732
0.078125 	-0.9375 	0.5 	8.45976
0.09375 	-0.9375 	0.5 	8.38817
0.109375 	-0.9375 	0.5 	8.30756
0.125 	-0.9375 	0.5 	8.22702
0.140625 	-0.9375 	0.5 	8.13906
0.15625 	-0.9375 	0.5 	8.05444
0.171875 	-0.9375 	0.5 	7.96764
0.1875 	-0.9375 	0.5 	7.86734
0.203125 	-0.9375 	0.5 	7.767
0.21875 	-0.9375 	0.5 	7.66586
0.234375 	-0.9375 	0.5 	7.56202
0.25 	-0.9375 	0.5 	7.46243
0.265625 	-0.9375 	0.5 	7.36094
0.28125 	-0.9375 	0.5 	7.28472
0.296875 	-0.9375 	0.5 	7.18496
0.3125 	-0.9375 	0.5 	7.09479
0.328125 	-0.9375 	0.5 	6.98421
0.34375 	-0.9375 	0.5 	6.85973
0.359375 	-0.9375 	0.5 	6.74498
0.375 	-0.9375 	0.5 	6.66122
0.390625 	-0.9375 	0.5 	6.57685
0.40625 	-0.9375 	0.5 	6.49116
0.421875 	-0.9375 	0.5 	6.39431
0.4375 	-0.9375 	0.5 	6.29061
0.453125 	-0.9375 	0.5 	6.21508
0.46875 	-0.9375 	0.5 	6.14071
0.484375 	-0.9375 	0.5 	6.05398
0.5 	-0.9375 	0.5 	5.96619
0.515625 	-0.9375 	0.5 	5.88048
0.53125 	-0.9375 	0.5 	5.81063
0.546875 	-0.9375 	0.5 	5.7383
0.5625 	-0.9375 	0.5 	5.65449
0.578125 	-0.9375 	0.5 	5.60107
0.59375 	-0.9375 	0.5 	5.53598
0.609375 	-0.9375 	0.5 	5.47849
0.625 	-0.9375 	0.5 	5.42659
0.640625 	-0.9375 	0.5 	5.3638
0.65625 	-0.9375 	0.5 	5.30741
0.671875 	-0.9375 	0.5 	5.25942
0.6875 	-0.9375 	0.5 	5.20788
0.703125 	-0.9375 	0.5 	5.15962
0.71875 	-0.9375 	0.5 	5.12297
0.734375 	-0.9375 	0.5 	5.08939
0.75 	-0.9375 	0.5 	5.05366
0.765625 	-0.9375 	0.5 	5.00274
0.78125 	-0.9375 	0.5 	4.96779
0.796875 	-0.9375 	0.5 	4.91434
0.8125 	-0.9375 	0.5 	4.88736
0.828125 	-0.9375 	0.5 	4.87034
0.84375 	-0.9375 	0.5 	4.82762
0.859375 	-0.9375 	0.5 	4.7853
0.875 	-0.9375 	0.5 	4.75607
0.890625 	-0.9375 	0.5 	4.73968
0.90625 	-0.9375 	0.5 	4.70726
0.921875 	-0.9375 	0.5 	4.68802
0.9375 	-0.9375 	0.5 	4.64785
0.953125 	-0.9375 	0.5 	4.58104
0.96875 	-0.9375 	0.5 	4.54389
0.984375 	-0.9375 	0.5 	4.51491
1 	-0.9375 	0.5 	4.46555
1.01562 	-0.9375 	0.5 	4.40904
1.03125 	-0.9375 	0.5 	4.34682
1.04688 	-0.9375 	0.5 	4.2781
1.0625 	-0.9375 	0.5 	4.25245
1.07812 	-0.9375 	0.5 	4.19057
1.09375 	-0.9375 	0.5 	4.09554
1.10938 	-0.9375 	0.5 	4.01037
1.125 	-0.9375 	0.5 	3.93684
1.14062 	-0.9375 	0.5 	3.87615
1.15625 	-0.9375 	0.5 	3.78199
1.17188 	-0.9375 	0.5 	3.72284
1.1875 	-0.9375 	0.5 	3.63565
1.20312 	-0.9375 	0.5 	3.57145
1.21875 	-0.9375 	0.5 	3.42202
1.23438 	-0.9375 	0.5 	3.32154
1.25 	-0.9375 	0.5 	3.22214
1.26562 	-0.9375 	0.5 	3.11217
1.28125 	-0.9375 	0.5 	3.00875
1.29688 	-0.9375 	0.5 	2.87371
1.3125 	-0.9375 	0.5 	2.73937
1.32812 	-0.9375 	0.5 	2.60994
1.34375 	-0.9375 	0.5 	2.488
1.35938 	-0.9375 	0.5 	2.38174
1.375 	-0.9375 	0.5 	2.2896
1.39062 	-0.9375 	0.5 	2.10046
1.40625 	-0.9375 	0.5 	1.94137
1.42188 	-0.9375 	0.5 	1.79117
1.4375 	-0.9375 	0.5 	1.62678
1.45312 	-0.9375 	0.5 	1.4872
1.46875 	-0.9375 	0.5 	1.30475
1.48438 	-0.9375 	0.5 	1.14238
-0.5 	-0.921875 	0.5 	6.99703
-0.484375 	-0.921875 	0.5 	7.14142
-0.46875 	-0.921875 	0.5 	7.28097
-0.453125 	-0.921875 	0.5 	7.45666
-0.4375 	-0.921875 	0.5 	7.62578
-0.421875 	-0.921875 	0.5 	7.79525
-0.40625 	-0.921875 	0.5 	7.7983
-0.390625 	-0.921875 	0.5 	7.9611
-0.375 	-0.921875 	0.5 	8.1239
-0.359375 	-0.921875 	0.5 	8.29368
-0.34375 	-0.921875 	0.5 	8.48646
-0.328125 	-0.921875 	0.5 	8.57253
-0.3125 	-0.921875 	0.5 	8.57352
-0.296875 	-0.921875 	0.5 	8.70406
-0.28125 	-0.921875 	0.5 	8.7815
-0.265625 	-0.921875 	0.5 	8.89839
-0.25 	-0.921875 	0.5 	8.94003
-0.234375 	-0.921875 	0.5 	8.94884
-0.21875 	-0.921875 	0.5 	8.97965
-0.203125 	-0.921875 	0.5 	9.0535
-0.1875 	-0.921875 	0.5 	9.1253
-0.171875 	-0.921875 	0.5 	9.16593
-0.15625 	-0.921875 	0.5 	9.19931
-0.140625 	-0.921875 	0.5 	9.19795
-0.125 	-0.921875 	0.5 	9.21631
-0.109375 	-0.921875 	0.5 	9.20329
-0.09375 	-0.921875 	0.5 	9.18782
-0.078125 	-0.921875 	0.5 	9.17345
-0.0625 	-0.921875 	0.5 	9.17554
-0.046875 	-0.921875 	0.5 	9.13667
-0.03125 	-0.921875 	0.5 	9.07989
-0.015625 	-0.921875 	0.5 	9.0578
0 	-0.921875 	0.5 	9.00111
0.015625 	-0.921875 	0.5 	8.92981
0.03125 	-0.921875 	0.5 	8.88078
0.046875 	-0.921875 	0.5 	8.81367
0.0625 	-0.921875 	0.5 	8.7398
0.078125 	-0.921875 	0.5 	8.69395
0.09375 	-0.921875 	0.5 	8.61819
0.109375 	-0.921875 	0.5 	8.52703
0.125 	-0.921875 	0.5 	8.45092
0.140625 	-0.921875 	0.5 	8.33672
0.15625 	-0.921875 	0.5 	8.25166
0.171875 	-0.921875 	0.5 	8.14317
0.1875 	-0.921875 	0.5 	8.04658
0.203125 	-0.921875 	0.5 	7.94898
0.21875 	-0.921875 	0.5 	7.85411
0.234375 	-0.921875 	0.5 	7.73531
0.25 	-0.921875 	0.5 	7.62149
0.265625 	-0.921875 	0.5 	7.51204
0.28125 	-0.921875 	0.5 	7.41959
0.296875 	-0.921875 	0.5 	7.3279
0.3125 	-0.921875 	0.5 	7.24637
0.328125 	-0.921875 	0.5 	7.10758
0.34375 	-0.921875 	0.5 	6.99049
0.359375 	-0.921875 	0.5 	6.8896
0.375 	-0.921875 	0.5 	6.79241
0.390625 	-0.921875 	0.5 	6.71456
0.40625 	-0.921875 	0.5 	6.59908
0.421875 	-0.921875 	0.5 	6.4931
0.4375 	-0.921875 	0.5 	6.38792
0.453125 	-0.921875 	0.5 	6.31077
0.46875 	-0.921875 	0.5 	6.25207
0.484375 	-0.921875 	0.5 	6.13836
0.5 	-0.921875 	0.5 	6.0521
0.515625 	-0.921875 	0.5 	5.96642
0.53125 	-0.921875 	0.5 	5.89723
0.546875 	-0.921875 	0.5 	5.82162
0.5625 	-0.921875 	0.5 	5.74267
0.578125 	-0.921875 	0.5 	5.68202
0.59375 	-0.921875 	0.5 	5.62122
0.609375 	-0.921875 	0.5 	5.56693
0.625 	-0.921875 	0.5 	5.50753
0.640625 	-0.921875 	0.5 	5.4412
0.65625 	-0.921875 	0.5 	5.37791
0.671875 	-0.921875 	0.5 	5.34486
0.6875 	-0.921875 	0.5 	5.30074
0.703125 	-0.921875 	0.5 	5.24201
0.71875 	-0.921875 	0.5 	5.20672
0.734375 	-0.921875 	0.5 	5.17755
0.75 	-0.921875 	0.5 	5.15211
0.765625 	-0.921875 	0.5 	5.10832
0.78125 	-0.921875 	0.5 	5.05885
0.796875 	-0.921875 	0.5 	5.01035
0.8125 	-0.921875 	0.5 	4.99101
0.828125 	-0.921875 	0.5 	4.97105
0.84375 	-0.921875 	0.5 	4.93967
0.859375 	-0.921875 	0.5 	4.90886
0.875 	-0.921875 	0.5 	4.87843
0.890625 	-0.921875 	0.5 	4.84916
0.90625 	-0.921875 	0.5 	4.81909
0.921875 	-0.921875 	0.5 	4.78447
0.9375 	-0.921875 	0.5 	4.75918
0.953125 	-0.921875 	0.5 	4.71051
0.96875 	-0.921875 	0.5 	4.67997
0.984375 	-0.921875 	0.5 	4.64449
1 	-0.921875 	0.5 	4.61027
1.01562 	-0.921875 	0.5 	4.52703
1.03125 	-0.921875 	0.5 	4.479
1.04688 	-0.921875 	0.5 	4.44129
1.0625 	-0.921875 	0.5 	4.40327
1.07812 	-0.921875 	0.5 	4.34326
1.09375 	-0.921875 	0.5 	4.22667
1.10938 	-0.921875 	0.5 	4.15966
1.125 	-0.921875 	0.5 	4.11698
1.14062 	-0.921875 	0.5 	4.02803
1.15625 	-0.921875 	0.5 	3.95252
1.17188 	-0.921875 	0.5 	3.90761
1.1875 	-0.921875 	0.5 	3.81403
1.20312 	-0.921875 	0.5 	3.70858
1.21875 	-0.921875 	0.5 	3.58178
1.23438 	-0.921875 	0.5 	3.47591
1.25 	-0.921875 	0.5 	3.3833
1.26562 	-0.921875 	0.5 	3.27119
1.28125 	-0.921875 	0.5 	3.15109
1.29688 	-0.921875 	0.5 	3.01926
1.3125 	-0.921875 	0.5 	2.87471
1.32812 	-0.921875 	0.5 	2.76796
1.34375 	-0.921875 	0.5 	2.64675
1.35938 	-0.921875 	0.5 	2.49585
1.375 	-0.921875 	0.5 	2.38796
1.39062 	-0.921875 	0.5 	2.21598
1.40625 	-0.921875 	0.5 	2.06854
1.42188 	-0.921875 	0.5 	1.92933
1.4375 	-0.921875 	0.5 	1.77483
1.45312 	-0.921875 	0.5 	1.59284
1.46875 	-0.921875 	0.5 	1.41889
1.48438 	-0.921875 	0.5 	1.24148
-0.5 	-0.90625 	0.5 	7.25372
-0.484375 	-0.90625 	0.5 	7.39827
-0.46875 	-0.90625 	0.5 	7.51568
-0.453125 	-0.90625 	0.5 	7.65686
-0.4375 	-0.90625 	0.5 	7.82619
-0.421875 	-0.90625 	0.5 	7.99722
-0.40625 	-0.90625 	0.5 	8.19409
-0.390625 	-0.90625 	0.5 	8.32052
-0.375 	-0.90625 	0.5 	8.42756
-0.359375 	-0.90625 	0.5 	8.59817
-0.34375 	-0.90625 	0.5 	8.69601
-0.328125 	-0.90625 	0.5 	8.80834
-0.3125 	-0.90625 	0.5 	8.83575
-0.296875 	-0.90625 	0.5 	8.96074
-0.28125 	-0.90625 	0.5 	9.08305
-0.265625 	-0.90625 	0.5 	9.13957
-0.25 	-0.90625 	0.5 	9.19605
-0.234375 	-0.90625 	0.5 	9.25178
-0.21875 	-0.90625 	0.5 	9.28238
-0.203125 	-0.90625 	0.5 	9.32355
-0.1875 	-0.90625 	0.5 	9.38003
-0.171875 	-0.90625 	0.5 	9.43566
-0.15625 	-0.90625 	0.5 	9.45019
-0.140625 	-0.90625 	0.5 	9.4894
-0.125 	-0.90625 	0.5 	9.49045
-0.109375 	-0.90625 	0.5 	9.47678
-0.09375 	-0.90625 	0.5 	9.46254
-0.078125 	-0.90625 	0.5 	9.44569
-0.0625 	-0.90625 	0.5 	9.40973
-0.046875 	-0.90625 	0.5 	9.35438
-0.03125 	-0.90625 	0.5 	9.33001
-0.015625 	-0.90625 	0.5 	9.28751
0 	-0.90625 	0.5 	9.22489
0.015625 	-0.90625 	0.5 	9.17327
0.03125 	-0.90625 	0.5 	9.10464
0.046875 	-0.90625 	0.5 	9.03772
0.0625 	-0.90625 	0.5 	8.96965
0.078125 	-0.90625 	0.5 	8.89514
0.09375 	-0.90625 	0.5 	8.82115
0.109375 	-0.90625 	0.5 	8.73834
0.125 	-0.90625 	0.5 	8.6414
0.140625 	-0.90625 	0.5 	8.54243
0.15625 	-0.90625 	0.5 	8.43964
0.171875 	-0.90625 	0.5 	8.33466
0.1875 	-0.90625 	0.5 	8.22969
0.203125 	-0.90625 	0.5 	8.11757
0.21875 	-0.90625 	0.5 	8.01165
0.234375 	-0.90625 	0.5 	7.90653
0.25 	-0.90625 	0.5 	7.78175
0.265625 	-0.90625 	0.5 	7.67725
0.28125 	-0.90625 	0.5 	7.57017
0.296875 	-0.90625 	0.5 	7.45526
0.3125 	-0.90625 	0.5 	7.34417
0.328125 	-0.90625 	0.5 	7.23261
0.34375 	-0.90625 	0.5 	7.12938
0.359375 	-0.90625 	0.5 	7.02382
0.375 	-0.90625 	0.5 	6.9042
0.390625 	-0.90625 	0.5 	6.8021
0.40625 	-0.90625 	0.5 	6.69858
0.421875 	-0.90625 	0.5 	6.59905
0.4375 	-0.90625 	0.5 	6.49542
0.453125 	-0.90625 	0.5 	6.40455
0.46875 	-0.90625 	0.5 	6.33938
0.484375 	-0.90625 	0.5 	6.22385
0.5 	-0.90625 	0.5 	6.11663
0.515625 	-0.90625 	0.5 	6.04357
0.53125 	-0.90625 	0.5 	5.9712
0.546875 	-0.90625 	0.5 	5.90126
0.5625 	-0.90625 	0.5 	5.8354
0.578125 	-0.90625 	0.5 	5.75739
0.59375 	-0.90625 	0.5 	5.69091
0.609375 	-0.90625 	0.5 	5.643
0.625 	-0.90625 	0.5 	5.57423
0.640625 	-0.90625 	0.5 	5.50784
0.65625 	-0.90625 	0.5 	5.44828
0.671875 	-0.90625 	0.5 	5.42971
0.6875 	-0.90625 	0.5 	5.36749
0.703125 	-0.90625 	0.5 	5.32642
0.71875 	-0.90625 	0.5 	5.29068
0.734375 	-0.90625 	0.5 	5.26017
0.75 	-0.90625 	0.5 	5.23729
0.765625 	-0.90625 	0.5 	5.19355
0.78125 	-0.90625 	0.5 	5.15805
0.796875 	-0.90625 	0.5 	5.13225
0.8125 	-0.90625 	0.5 	5.11384
0.828125 	-0.90625 	0.5 	5.06537
0.84375 	-0.90625 	0.5 	5.03593
0.859375 	-0.90625 	0.5 	5.01901
0.875 	-0.90625 	0.5 	4.98893
0.890625 	-0.90625 	0.5 	4.96875
0.90625 	-0.90625 	0.5 	4.94612
0.921875 	-0.90625 	0.5 	4.90166
0.9375 	-0.90625 	0.5 	4.87334
0.953125 	-0.90625 	0.5 	4.84019
0.96875 	-0.90625 	0.5 	4.80977
0.984375 	-0.90625 	0.5 	4.77178
1 	-0.90625 	0.5 	4.73879
1.01562 	-0.90625 	0.5 	4.6934
1.03125 	-0.90625 	0.5 	4.61641
1.04688 	-0.90625 	0.5 	4.58791
1.0625 	-0.90625 	0.5 	4.55217
1.07812 	-0.90625 	0.5 	4.48982
1.09375 	-0.90625 	0.5 	4.39371
1.10938 	-0.90625 	0.5 	4.3701
1.125 	-0.90625 	0.5 	4.3385
1.14062 	-0.90625 	0.5 	4.2042
1.15625 	-0.90625 	0.5 	4.12117
1.17188 	-0.90625 	0.5 	4.01968
1.1875 	-0.90625 	0.5 	3.92849
1.20312 	-0.90625 	0.5 	3.87978
1.21875 	-0.90625 	0.5 	3.79151
1.23438 	-0.90625 	0.5 	3.65342
1.25 	-0.90625 	0.5 	3.53707
1.26562 	-0.90625 	0.5 	3.41671
1.28125 	-0.90625 	0.5 	3.29581
1.29688 	-0.90625 	0.5 	3.17317
1.3125 	-0.90625 	0.5 	3.03405
1.32812 	-0.90625 	0.5 	2.9225
1.34375 	-0.90625 	0.5 	2.78503
1.35938 	-0.90625 	0.5 	2.64016
1.375 	-0.90625 	0.5 	2.4969
1.39062 	-0.90625 	0.5 	2.36334
1.40625 	-0.90625 	0.5 	2.21932
1.42188 	-0.90625 	0.5 	2.06466
1.4375 	-0.90625 	0.5 	1.88679
1.45312 	-0.90625 	0.5 	1.71397
1.46875 	-0.90625 	0.5 	1.52795
1.48438 	-0.90625 	0.5 	1.38067
-0.5 	-0.890625 	0.5 	7.45068
-0.484375 	-0.890625 	0.5 	7.58758
-0.46875 	-0.890625 	0.5 	7.73598
-0.453125 	-0.890625 	0.5 	7.87201
-0.4375 	-0.890625 	0.5 	8.01418
-0.421875 	-0.890625 	0.5 	8.22203
-0.40625 	-0.890625 	0.5 	8.44023
-0.390625 	-0.890625 	0.5 	8.61241
-0.375 	-0.890625 	0.5 	8.69757
-0.359375 	-0.890625 	0.5 	9.00783
-0.34375 	-0.890625 	0.5 	8.99847
-0.328125 	-0.890625 	0.5 	9.04621
-0.3125 	-0.890625 	0.5 	9.12534
-0.296875 	-0.890625 	0.5 	9.16045
-0.28125 	-0.890625 	0.5 	9.38631
-0.265625 	-0.890625 	0.5 	9.47824
-0.25 	-0.890625 	0.5 	9.52608
-0.234375 	-0.890625 	0.5 	9.58192
-0.21875 	-0.890625 	0.5 	9.60585
-0.203125 	-0.890625 	0.5 	9.65131
-0.1875 	-0.890625 	0.5 	9.67052
-0.171875 	-0.890625 	0.5 	9.71581
-0.15625 	-0.890625 	0.5 	9.70902
-0.140625 	-0.890625 	0.5 	9.73732
-0.125 	-0.890625 	0.5 	9.76263
-0.109375 	-0.890625 	0.5 	9.74728
-0.09375 	-0.890625 	0.5 	9.76819
-0.078125 	-0.890625 	0.5 	9.74315
-0.0625 	-0.890625 	0.5 	9.66884
-0.046875 	-0.890625 	0.5 	9.629
-0.03125 	-0.890625 	0.5 	9.58181
-0.015625 	-0.890625 	0.5 	9.53676
0 	-0.890625 	0.5 	9.49804
0.015625 	-0.890625 	0.5 	9.43688
0.03125 	-0.890625 	0.5 	9.32939
0.046875 	-0.890625 	0.5 	9.26022
0.0625 	-0.890625 	0.5 	9.19458
0.078125 	-0.890625 	0.5 	9.155
0.09375 	-0.890625 	0.5 	9.07591
0.109375 	-0.890625 	0.5 	8.94321
0.125 	-0.890625 	0.5 	8.84222
0.140625 	-0.890625 	0.5 	8.74408
0.15625 	-0.890625 	0.5 	8.63538
0.171875 	-0.890625 	0.5 	8.52783
0.1875 	-0.890625 	0.5 	8.42371
0.203125 	-0.890625 	0.5 	8.29656
0.21875 	-0.890625 	0.5 	8.17465
0.234375 	-0.890625 	0.5 	8.12586
0.25 	-0.890625 	0.5 	7.96004
0.265625 	-0.890625 	0.5 	7.83059
0.28125 	-0.890625 	0.5 	7.69136
0.296875 	-0.890625 	0.5 	7.59454
0.3125 	-0.890625 	0.5 	7.48562
0.328125 	-0.890625 	0.5 	7.39086