-0.5 	-1 	0.5 	-97.7339
-0.484375 	-1 	0.5 	-97.5665
-0.46875 	-1 	0.5 	-97.4005
-0.453125 	-1 	0.5 	-97.2145
-0.4375 	-1 	0.5 	-96.9975
-0.421875 	-1 	0.5 	-96.7805
-0.40625 	-1 	0.5 	-96.5748
-0.390625 	-1 	0.5 	-96.4204
-0.375 	-1 	0.5 	-96.3199
-0.359375 	-1 	0.5 	-96.1829
-0.34375 	-1 	0.5 	-96.0362
-0.328125 	-1 	0.5 	-95.901
-0.3125 	-1 	0.5 	-95.7994
-0.296875 	-1 	0.5 	-95.6726
-0.28125 	-1 	0.5 	-95.5044
-0.265625 	-1 	0.5 	-95.5167
-0.25 	-1 	0.5 	-95.5414
-0.234375 	-1 	0.5 	-95.4162
-0.21875 	-1 	0.5 	-95.2976
-0.203125 	-1 	0.5 	-95.1927
-0.1875 	-1 	0.5 	-95.1656
-0.171875 	-1 	0.5 	-95.0229
-0.15625 	-1 	0.5 	-95.1051
-0.140625 	-1 	0.5 	-95.0516
-0.125 	-1 	0.5 	-95.0647
-0.109375 	-1 	0.5 	-95.0367
-0.09375 	-1 	0.5 	-95.0265
-0.078125 	-1 	0.5 	-95.0298
-0.0625 	-1 	0.5 	-95.0274
-0.046875 	-1 	0.5 	-95.0179
-0.03125 	-1 	0.5 	-95.0088
-0.015625 	-1 	0.5 	-94.9963
0 	-1 	0.5 	-94.9884
0.015625 	-1 	0.5 	-95.0365
0.03125 	-1 	0.5 	-95.1196
0.046875 	-1 	0.5 	-95.1319
0.0625 	-1 	0.5 	-95.1726
0.078125 	-1 	0.5 	-95.1459
0.09375 	-1 	0.5 	-95.1625
0.109375 	-1 	0.5 	-95.2122
0.125 	-1 	0.5 	-95.1436
0.140625 	-1 	0.5 	-95.2209
0.15625 	-1 	0.5 	-95.2341
0.171875 	-1 	0.5 	-95.2595
0.1875 	-1 	0.5 	-95.2659
0.203125 	-1 	0.5 	-95.2147
0.21875 	-1 	0.5 	-95.241
0.234375 	-1 	0.5 	-95.2468
0.25 	-1 	0.5 	-95.2333
0.265625 	-1 	0.5 	-95.2106
0.28125 	-1 	0.5 	-95.1802
0.296875 	-1 	0.5 	-95.153
0.3125 	-1 	0.5 	-95.125
0.328125 	-1 	0.5 	-95.0914
0.34375 	-1 	0.5 	-95.0556
0.359375 	-1 	0.5 	-95.0019
0.375 	-1 	0.5 	-94.9479
0.390625 	-1 	0.5 	-94.8823
0.40625 	-1 	0.5 	-94.8237
0.421875 	-1 	0.5 	-94.7499
0.4375 	-1 	0.5 	-94.6613
0.453125 	-1 	0.5 	-94.5912
0.46875 	-1 	0.5 	-94.508
0.484375 	-1 	0.5 	-94.4009
0.5 	-1 	0.5 	-94.3172
0.515625 	-1 	0.5 	-94.2038
0.53125 	-1 	0.5 	-94.1007
0.546875 	-1 	0.5 	-94.0027
0.5625 	-1 	0.5 	-93.8863
0.578125 	-1 	0.5 	-93.7561
0.59375 	-1 	0.5 	-93.6226
0.609375 	-1 	0.5 	-93.5078
0.625 	-1 	0.5 	-93.392
0.640625 	-1 	0.5 	-93.2667
0.65625 	-1 	0.5 	-93.1766
0.671875 	-1 	0.5 	-93.0938
0.6875 	-1 	0.5 	-92.9832
0.703125 	-1 	0.5 	-92.8276
0.71875 	-1 	0.5 	-92.7226
0.734375 	-1 	0.5 	-92.6782
0.75 	-1 	0.5 	-92.5979
0.765625 	-1 	0.5 	-92.5033
0.78125 	-1 	0.5 	-92.421
0.796875 	-1 	0.5 	-92.3788
0.8125 	-1 	0.5 	-92.3358
0.828125 	-1 	0.5 	-92.3257
0.84375 	-1 	0.5 	-92.2663
0.859375 	-1 	0.5 	-92.1626
0.875 	-1 	0.5 	-92.0672
0.890625 	-1 	0.5 	-92.0256
0.90625 	-1 	0.5 	-92.0782
0.921875 	-1 	0.5 	-92.1335
0.9375 	-1 	0.5 	-92.1869
0.953125 	-1 	0.5 	-92.1932
0.96875 	-1 	0.5 	-92.2264
0.984375 	-1 	0.5 	-92.3512
1 	-1 	0.5 	-92.3326
1.01562 	-1 	0.5 	-92.3198
1.03125 	-1 	0.5 	-92.4421
1.04688 	-1 	0.5 	-92.4822
1.0625 	-1 	0.5 	-92.7506
1.07812 	-1 	0.5 	-92.825
1.09375 	-1 	0.5 	-92.9728
1.10938 	-1 	0.5 	-92.9796
1.125 	-1 	0.5 	-93.1726
1.14062 	-1 	0.5 	-93.3468
1.15625 	-1 	0.5 	-93.5636
1.17188 	-1 	0.5 	-93.7723
1.1875 	-1 	0.5 	-93.9811
1.20312 	-1 	0.5 	-94.1851
1.21875 	-1 	0.5 	-94.3971
1.23438 	-1 	0.5 	-94.6019
1.25 	-1 	0.5 	-94.7856
1.26562 	-1 	0.5 	-95.0012
1.28125 	-1 	0.5 	-95.2394
1.29688 	-1 	0.5 	-95.4328
1.3125 	-1 	0.5 	-95.822
1.32812 	-1 	0.5 	-96.1602
1.34375 	-1 	0.5 	-96.3657
1.35938 	-1 	0.5 	-96.6783
1.375 	-1 	0.5 	-96.8824
1.39062 	-1 	0.5 	-97.16
1.40625 	-1 	0.5 	-97.5233
1.42188 	-1 	0.5 	-97.7802
1.4375 	-1 	0.5 	-98.1316
1.45312 	-1 	0.5 	-98.44
1.46875 	-1 	0.5 	-98.8236
1.48438 	-1 	0.5 	-99.1199
-0.5 	-0.984375 	0.5 	-97.4818
-0.484375 	-0.984375 	0.5 	-97.3936
-0.46875 	-0.984375 	0.5 	-97.1421
-0.453125 	-0.984375 	0.5 	-96.9202
-0.4375 	-0.984375 	0.5 	-96.6546
-0.421875 	-0.984375 	0.5 	-96.4358
-0.40625 	-0.984375 	0.5 	-96.3066
-0.390625 	-0.984375 	0.5 	-96.1074
-0.375 	-0.984375 	0.5 	-96.0049
-0.359375 	-0.984375 	0.5 	-95.8938
-0.34375 	-0.984375 	0.5 	-95.7317
-0.328125 	-0.984375 	0.5 	-95.64
-0.3125 	-0.984375 	0.5 	-95.503
-0.296875 	-0.984375 	0.5 	-95.3919
-0.28125 	-0.984375 	0.5 	-95.2412
-0.265625 	-0.984375 	0.5 	-95.1975
-0.25 	-0.984375 	0.5 	-95.2564
-0.234375 	-0.984375 	0.5 	-95.1176
-0.21875 	-0.984375 	0.5 	-95.0401
-0.203125 	-0.984375 	0.5 	-94.9061
-0.1875 	-0.984375 	0.5 	-94.8652
-0.171875 	-0.984375 	0.5 	-94.6745
-0.15625 	-0.984375 	0.5 	-94.7386
-0.140625 	-0.984375 	0.5 	-94.7977
-0.125 	-0.984375 	0.5 	-94.8151
-0.109375 	-0.984375 	0.5 	-94.8316
-0.09375 	-0.984375 	0.5 	-94.7697
-0.078125 	-0.984375 	0.5 	-94.7807
-0.0625 	-0.984375 	0.5 	-94.7886
-0.046875 	-0.984375 	0.5 	-94.7748
-0.03125 	-0.984375 	0.5 	-94.7466
-0.015625 	-0.984375 	0.5 	-94.804
0 	-0.984375 	0.5 	-94.7919
0.015625 	-0.984375 	0.5 	-94.8213
0.03125 	-0.984375 	0.5 	-94.9165
0.046875 	-0.984375 	0.5 	-95.019
0.0625 	-0.984375 	0.5 	-94.9742
0.078125 	-0.984375 	0.5 	-95.0039
0.09375 	-0.984375 	0.5 	-95.0094
0.109375 	-0.984375 	0.5 	-95.0304
0.125 	-0.984375 	0.5 	-95.0067
0.140625 	-0.984375 	0.5 	-95.0475
0.15625 	-0.984375 	0.5 	-95.0965
0.171875 	-0.984375 	0.5 	-95.1073
0.1875 	-0.984375 	0.5 	-95.1308
0.203125 	-0.984375 	0.5 	-95.1084
0.21875 	-0.984375 	0.5 	-95.0673
0.234375 	-0.984375 	0.5 	-95.1219
0.25 	-0.984375 	0.5 	-95.1117
0.265625 	-0.984375 	0.5 	-95.1016
0.28125 	-0.984375 	0.5 	-95.0629
0.296875 	-0.984375 	0.5 	-95.0274
0.3125 	-0.984375 	0.5 	-94.9857
0.328125 	-0.984375 	0.5 	-94.9704
0.34375 	-0.984375 	0.5 	-94.9289
0.359375 	-0.984375 	0.5 	-94.8738
0.375 	-0.984375 	0.5 	-94.8284
0.390625 	-0.984375 	0.5 	-94.789
0.40625 	-0.984375 	0.5 	-94.7012
0.421875 	-0.984375 	0.5 	-94.6152
0.4375 	-0.984375 	0.5 	-94.5245
0.453125 	-0.984375 	0.5 	-94.4337
0.46875 	-0.984375 	0.5 	-94.3667
0.484375 	-0.984375 	0.5 	-94.2656
0.5 	-0.984375 	0.5 	-94.1309
0.515625 	-0.984375 	0.5 	-94.021
0.53125 	-0.984375 	0.5 	-93.9031
0.546875 	-0.984375 	0.5 	-93.8412
0.5625 	-0.984375 	0.5 	-93.7102
0.578125 	-0.984375 	0.5 	-93.5826
0.59375 	-0.984375 	0.5 	-93.421
0.609375 	-0.984375 	0.5 	-93.3317
0.625 	-0.984375 	0.5 	-93.1849
0.640625 	-0.984375 	0.5 	-93.0948
0.65625 	-0.984375 	0.5 	-92.9459
0.671875 	-0.984375 	0.5 	-92.8192
0.6875 	-0.984375 	0.5 	-92.7387
0.703125 	-0.984375 	0.5 	-92.5211
0.71875 	-0.984375 	0.5 	-92.4865
0.734375 	-0.984375 	0.5 	-92.3422
0.75 	-0.984375 	0.5 	-92.3146
0.765625 	-0.984375 	0.5 	-92.2263
0.78125 	-0.984375 	0.5 	-92.1183
0.796875 	-0.984375 	0.5 	-92.0245
0.8125 	-0.984375 	0.5 	-91.986
0.828125 	-0.984375 	0.5 	-91.9438
0.84375 	-0.984375 	0.5 	-91.8949
0.859375 	-0.984375 	0.5 	-91.6904
0.875 	-0.984375 	0.5 	-91.7114
0.890625 	-0.984375 	0.5 	-91.6895
0.90625 	-0.984375 	0.5 	-91.7306
0.921875 	-0.984375 	0.5 	-91.7332
0.9375 	-0.984375 	0.5 	-91.7655
0.953125 	-0.984375 	0.5 	-91.832
0.96875 	-0.984375 	0.5 	-91.8223
0.984375 	-0.984375 	0.5 	-91.8184
1 	-0.984375 	0.5 	-91.943
1.01562 	-0.984375 	0.5 	-92.0157
1.03125 	-0.984375 	0.5 	-92.0609
1.04688 	-0.984375 	0.5 	-92.085
1.0625 	-0.984375 	0.5 	-92.3227
1.07812 	-0.984375 	0.5 	-92.455
1.09375 	-0.984375 	0.5 	-92.5846
1.10938 	-0.984375 	0.5 	-92.6742
1.125 	-0.984375 	0.5 	-92.7607
1.14062 	-0.984375 	0.5 	-92.9716
1.15625 	-0.984375 	0.5 	-93.1967
1.17188 	-0.984375 	0.5 	-93.4619
1.1875 	-0.984375 	0.5 	-93.6008
1.20312 	-0.984375 	0.5 	-93.6967
1.21875 	-0.984375 	0.5 	-94.046
1.23438 	-0.984375 	0.5 	-94.2792
1.25 	-0.984375 	0.5 	-94.4667
1.26562 	-0.984375 	0.5 	-94.6815
1.28125 	-0.984375 	0.5 	-94.8386
1.29688 	-0.984375 	0.5 	-95.1272
1.3125 	-0.984375 	0.5 	-95.515
1.32812 	-0.984375 	0.5 	-95.8675
1.34375 	-0.984375 	0.5 	-96.1345
1.35938 	-0.984375 	0.5 	-96.3528
1.375 	-0.984375 	0.5 	-96.6215
1.39062 	-0.984375 	0.5 	-96.9385
1.40625 	-0.984375 	0.5 	-97.2555
1.42188 	-0.984375 	0.5 	-97.5875
1.4375 	-0.984375 	0.5 	-97.8968
1.45312 	-0.984375 	0.5 	-98.2303
1.46875 	-0.984375 	0.5 	-98.5831
1.48438 	-0.984375 	0.5 	-98.9193
-0.5 	-0.96875 	0.5 	-97.2174
-0.484375 	-0.96875 	0.5 	-97.0894
-0.46875 	-0.96875 	0.5 	-96.841
-0.453125 	-0.96875 	0.5 	-96.6397
-0.4375 	-0.96875 	0.5 	-96.3947
-0.421875 	-0.96875 	0.5 	-96.1693
-0.40625 	-0.96875 	0.5 	-95.9972
-0.390625 	-0.96875 	0.5 	-95.7943
-0.375 	-0.96875 	0.5 	-95.6912
-0.359375 	-0.96875 	0.5 	-95.5812
-0.34375 	-0.96875 	0.5 	-95.4677
-0.328125 	-0.96875 	0.5 	-95.3627
-0.3125 	-0.96875 	0.5 	-95.2343
-0.296875 	-0.96875 	0.5 	-95.1113
-0.28125 	-0.96875 	0.5 	-94.9873
-0.265625 	-0.96875 	0.5 	-94.9428
-0.25 	-0.96875 	0.5 	-94.9105
-0.234375 	-0.96875 	0.5 	-94.8244
-0.21875 	-0.96875 	0.5 	-94.7307
-0.203125 	-0.96875 	0.5 	-94.6559
-0.1875 	-0.96875 	0.5 	-94.5359
-0.171875 	-0.96875 	0.5 	-94.5586
-0.15625 	-0.96875 	0.5 	-94.4878
-0.140625 	-0.96875 	0.5 	-94.5284
-0.125 	-0.96875 	0.5 	-94.5324
-0.109375 	-0.96875 	0.5 	-94.5552
-0.09375 	-0.96875 	0.5 	-94.5191
-0.078125 	-0.96875 	0.5 	-94.531
-0.0625 	-0.96875 	0.5 	-94.5396
-0.046875 	-0.96875 	0.5 	-94.528
-0.03125 	-0.96875 	0.5 	-94.544
-0.015625 	-0.96875 	0.5 	-94.5657
0 	-0.96875 	0.5 	-94.5933
0.015625 	-0.96875 	0.5 	-94.6526
0.03125 	-0.96875 	0.5 	-94.7177
0.046875 	-0.96875 	0.5 	-94.7731
0.0625 	-0.96875 	0.5 	-94.7531
0.078125 	-0.96875 	0.5 	-94.7359
0.09375 	-0.96875 	0.5 	-94.7975
0.109375 	-0.96875 	0.5 	-94.8487
0.125 	-0.96875 	0.5 	-94.8578
0.140625 	-0.96875 	0.5 	-94.8715
0.15625 	-0.96875 	0.5 	-94.9398
0.171875 	-0.96875 	0.5 	-94.9734
0.1875 	-0.96875 	0.5 	-94.9802
0.203125 	-0.96875 	0.5 	-94.9958
0.21875 	-0.96875 	0.5 	-94.9986
0.234375 	-0.96875 	0.5 	-95.0013
0.25 	-0.96875 	0.5 	-94.9885
0.265625 	-0.96875 	0.5 	-94.9847
0.28125 	-0.96875 	0.5 	-94.9571
0.296875 	-0.96875 	0.5 	-94.9207
0.3125 	-0.96875 	0.5 	-94.9044
0.328125 	-0.96875 	0.5 	-94.8789
0.34375 	-0.96875 	0.5 	-94.8218
0.359375 	-0.96875 	0.5 	-94.7567
0.375 	-0.96875 	0.5 	-94.6893
0.390625 	-0.96875 	0.5 	-94.6218
0.40625 	-0.96875 	0.5 	-94.559
0.421875 	-0.96875 	0.5 	-94.4872
0.4375 	-0.96875 	0.5 	-94.409
0.453125 	-0.96875 	0.5 	-94.3156
0.46875 	-0.96875 	0.5 	-94.2115
0.484375 	-0.96875 	0.5 	-94.0664
0.5 	-0.96875 	0.5 	-93.9781
0.515625 	-0.96875 	0.5 	-93.8364
0.53125 	-0.96875 	0.5 	-93.7497
0.546875 	-0.96875 	0.5 	-93.6491
0.5625 	-0.96875 	0.5 	-93.5402
0.578125 	-0.96875 	0.5 	-93.3954
0.59375 	-0.96875 	0.5 	-93.2291
0.609375 	-0.96875 	0.5 	-93.0823
0.625 	-0.96875 	0.5 	-92.9906
0.640625 	-0.96875 	0.5 	-92.8303
0.65625 	-0.96875 	0.5 	-92.7022
0.671875 	-0.96875 	0.5 	-92.5401
0.6875 	-0.96875 	0.5 	-92.429
0.703125 	-0.96875 	0.5 	-92.3111
0.71875 	-0.96875 	0.5 	-92.2042
0.734375 	-0.96875 	0.5 	-92.1296
0.75 	-0.96875 	0.5 	-92.0218
0.765625 	-0.96875 	0.5 	-91.9195
0.78125 	-0.96875 	0.5 	-91.8409
0.796875 	-0.96875 	0.5 	-91.6912
0.8125 	-0.96875 	0.5 	-91.5999
0.828125 	-0.96875 	0.5 	-91.5429
0.84375 	-0.96875 	0.5 	-91.5186
0.859375 	-0.96875 	0.5 	-91.4137
0.875 	-0.96875 	0.5 	-91.3761
0.890625 	-0.96875 	0.5 	-91.3655
0.90625 	-0.96875 	0.5 	-91.3876
0.921875 	-0.96875 	0.5 	-91.3899
0.9375 	-0.96875 	0.5 	-91.4368
0.953125 	-0.96875 	0.5 	-91.407
0.96875 	-0.96875 	0.5 	-91.4293
0.984375 	-0.96875 	0.5 	-91.457
1 	-0.96875 	0.5 	-91.5072
1.01562 	-0.96875 	0.5 	-91.6086
1.03125 	-0.96875 	0.5 	-91.6684
1.04688 	-0.96875 	0.5 	-91.7129
1.0625 	-0.96875 	0.5 	-91.847
1.07812 	-0.96875 	0.5 	-92.107
1.09375 	-0.96875 	0.5 	-92.1707
1.10938 	-0.96875 	0.5 	-92.2886
1.125 	-0.96875 	0.5 	-92.399
1.14062 	-0.96875 	0.5 	-92.6293
1.15625 	-0.96875 	0.5 	-92.8663
1.17188 	-0.96875 	0.5 	-93.0329
1.1875 	-0.96875 	0.5 	-93.1841
1.20312 	-0.96875 	0.5 	-93.4155
1.21875 	-0.96875 	0.5 	-93.6747
1.23438 	-0.96875 	0.5 	-93.9338
1.25 	-0.96875 	0.5 	-94.1809
1.26562 	-0.96875 	0.5 	-94.4259
1.28125 	-0.96875 	0.5 	-94.6709
1.29688 	-0.96875 	0.5 	-94.9159
1.3125 	-0.96875 	0.5 	-95.171
1.32812 	-0.96875 	0.5 	-95.4621
1.34375 	-0.96875 	0.5 	-95.7532
1.35938 	-0.96875 	0.5 	-96.043
1.375 	-0.96875 	0.5 	-96.3774
1.39062 	-0.96875 	0.5 	-96.7275
1.40625 	-0.96875 	0.5 	-97.0443
1.42188 	-0.96875 	0.5 	-97.349
1.4375 	-0.96875 	0.5 	-97.6927
1.45312 	-0.96875 	0.5 	-98.0357
1.46875 	-0.96875 	0.5 	-98.3774
1.48438 	-0.96875 	0.5 	-98.7187
-0.5 	-0.953125 	0.5 	-97.001
-0.484375 	-0.953125 	0.5 	-96.7385
-0.46875 	-0.953125 	0.5 	-96.5535
-0.453125 	-0.953125 	0.5 	-96.3468
-0.4375 	-0.953125 	0.5 	-96.125
-0.421875 	-0.953125 	0.5 	-95.9029
-0.40625 	-0.953125 	0.5 	-95.7195
-0.390625 	-0.953125 	0.5 	-95.579
-0.375 	-0.953125 	0.5 	-95.44
-0.359375 	-0.953125 	0.5 	-95.2755
-0.34375 	-0.953125 	0.5 	-95.162
-0.328125 	-0.953125 	0.5 	-95.0481
-0.3125 	-0.953125 	0.5 	-94.9341
-0.296875 	-0.953125 	0.5 	-94.8156
-0.28125 	-0.953125 	0.5 	-94.7548
-0.265625 	-0.953125 	0.5 	-94.6931
-0.25 	-0.953125 	0.5 	-94.5938
-0.234375 	-0.953125 	0.5 	-94.3829
-0.21875 	-0.953125 	0.5 	-94.3715
-0.203125 	-0.953125 	0.5 	-94.3602
-0.1875 	-0.953125 	0.5 	-94.3108
-0.171875 	-0.953125 	0.5 	-94.2545
-0.15625 	-0.953125 	0.5 	-94.1982
-0.140625 	-0.953125 	0.5 	-94.2573
-0.125 	-0.953125 	0.5 	-94.2708
-0.109375 	-0.953125 	0.5 	-94.2662
-0.09375 	-0.953125 	0.5 	-94.2646
-0.078125 	-0.953125 	0.5 	-94.2677
-0.0625 	-0.953125 	0.5 	-94.2725
-0.046875 	-0.953125 	0.5 	-94.3124
-0.03125 	-0.953125 	0.5 	-94.3416
-0.015625 	-0.953125 	0.5 	-94.3534
0 	-0.953125 	0.5 	-94.3785
0.015625 	-0.953125 	0.5 	-94.4866
0.03125 	-0.953125 	0.5 	-94.5268
0.046875 	-0.953125 	0.5 	-94.538
0.0625 	-0.953125 	0.5 	-94.5323
0.078125 	-0.953125 	0.5 	-94.536
0.09375 	-0.953125 	0.5 	-94.6087
0.109375 	-0.953125 	0.5 	-94.7023
0.125 	-0.953125 	0.5 	-94.7572
0.140625 	-0.953125 	0.5 	-94.7762
0.15625 	-0.953125 	0.5 	-94.7808
0.171875 	-0.953125 	0.5 	-94.8102
0.1875 	-0.953125 	0.5 	-94.8385
0.203125 	-0.953125 	0.5 	-94.8796
0.21875 	-0.953125 	0.5 	-94.8883
0.234375 	-0.953125 	0.5 	-94.8912
0.25 	-0.953125 	0.5 	-94.8333
0.265625 	-0.953125 	0.5 	-94.8403
0.28125 	-0.953125 	0.5 	-94.8464
0.296875 	-0.953125 	0.5 	-94.8227
0.3125 	-0.953125 	0.5 	-94.8032
0.328125 	-0.953125 	0.5 	-94.7751
0.34375 	-0.953125 	0.5 	-94.7193
0.359375 	-0.953125 	0.5 	-94.6476
0.375 	-0.953125 	0.5 	-94.5772
0.390625 	-0.953125 	0.5 	-94.5104
0.40625 	-0.953125 	0.5 	-94.4443
0.421875 	-0.953125 	0.5 	-94.3614
0.4375 	-0.953125 	0.5 	-94.272
0.453125 	-0.953125 	0.5 	-94.1837
0.46875 	-0.953125 	0.5 	-94.069
0.484375 	-0.953125 	0.5 	-93.9472
0.5 	-0.953125 	0.5 	-93.8227
0.515625 	-0.953125 	0.5 	-93.7184
0.53125 	-0.953125 	0.5 	-93.5855
0.546875 	-0.953125 	0.5 	-93.4083
0.5625 	-0.953125 	0.5 	-93.3312
0.578125 	-0.953125 	0.5 	-93.1402
0.59375 	-0.953125 	0.5 	-92.979
0.609375 	-0.953125 	0.5 	-92.8538
0.625 	-0.953125 	0.5 	-92.7437
0.640625 	-0.953125 	0.5 	-92.6153
0.65625 	-0.953125 	0.5 	-92.4572
0.671875 	-0.953125 	0.5 	-92.289
0.6875 	-0.953125 	0.5 	-92.1319
0.703125 	-0.953125 	0.5 	-92.045
0.71875 	-0.953125 	0.5 	-91.9283
0.734375 	-0.953125 	0.5 	-91.7876
0.75 	-0.953125 	0.5 	-91.6907
0.765625 	-0.953125 	0.5 	-91.6145
0.78125 	-0.953125 	0.5 	-91.476
0.796875 	-0.953125 	0.5 	-91.3614
0.8125 	-0.953125 	0.5 	-91.2793
0.828125 	-0.953125 	0.5 	-91.2274
0.84375 	-0.953125 	0.5 	-91.1462
0.859375 	-0.953125 	0.5 	-91.0977
0.875 	-0.953125 	0.5 	-91.088
0.890625 	-0.953125 	0.5 	-91.0684
0.90625 	-0.953125 	0.5 	-91.0403
0.921875 	-0.953125 	0.5 	-91.0261
0.9375 	-0.953125 	0.5 	-91.0754
0.953125 	-0.953125 	0.5 	-90.934
0.96875 	-0.953125 	0.5 	-90.9916
0.984375 	-0.953125 	0.5 	-91.0362
1 	-0.953125 	0.5 	-91.1215
1.01562 	-0.953125 	0.5 	-91.1974
1.03125 	-0.953125 	0.5 	-91.2481
1.04688 	-0.953125 	0.5 	-91.3135
1.0625 	-0.953125 	0.5 	-91.6285
1.07812 	-0.953125 	0.5 	-91.6184
1.09375 	-0.953125 	0.5 	-91.7367
1.10938 	-0.953125 	0.5 	-91.8175
1.125 	-0.953125 	0.5 	-92.0278
1.14062 	-0.953125 	0.5 	-92.2474
1.15625 	-0.953125 	0.5 	-92.4504
1.17188 	-0.953125 	0.5 	-92.65
1.1875 	-0.953125 	0.5 	-92.8557
1.20312 	-0.953125 	0.5 	-92.9658
1.21875 	-0.953125 	0.5 	-93.2061
1.23438 	-0.953125 	0.5 	-93.5741
1.25 	-0.953125 	0.5 	-93.8834
1.26562 	-0.953125 	0.5 	-94.1311
1.28125 	-0.953125 	0.5 	-94.4623
1.29688 	-0.953125 	0.5 	-94.6491
1.3125 	-0.953125 	0.5 	-94.7977
1.32812 	-0.953125 	0.5 	-95.1563
1.34375 	-0.953125 	0.5 	-95.4508
1.35938 	-0.953125 	0.5 	-95.7359
1.375 	-0.953125 	0.5 	-96.1274
1.39062 	-0.953125 	0.5 	-96.4489
1.40625 	-0.953125 	0.5 	-96.8037
1.42188 	-0.953125 	0.5 	-97.0703
1.4375 	-0.953125 	0.5 	-97.4488
1.45312 	-0.953125 	0.5 	-97.8149
1.46875 	-0.953125 	0.5 	-98.158
1.48438 	-0.953125 	0.5 	-98.4707
-0.5 	-0.9375 	0.5 	-96.5356
-0.484375 	-0.9375 	0.5 	-96.3941
-0.46875 	-0.9375 	0.5 	-96.2284
-0.453125 	-0.9375 	0.5 	-96.0155
-0.4375 	-0.9375 	0.5 	-95.8026
-0.421875 	-0.9375 	0.5 	-95.6293
-0.40625 	-0.9375 	0.5 	-95.5187
-0.390625 	-0.9375 	0.5 	-95.3902
-0.375 	-0.9375 	0.5 	-95.1852
-0.359375 	-0.9375 	0.5 	-94.9769
-0.34375 	-0.9375 	0.5 	-94.8103
-0.328125 	-0.9375 	0.5 	-94.7112
-0.3125 	-0.9375 	0.5 	-94.587
-0.296875 	-0.9375 	0.5 	-94.4846
-0.28125 	-0.9375 	0.5 	-94.4289
-0.265625 	-0.9375 	0.5 	-94.2972
-0.25 	-0.9375 	0.5 	-94.2322
-0.234375 	-0.9375 	0.5 	-94.0119
-0.21875 	-0.9375 	0.5 	-94.0723
-0.203125 	-0.9375 	0.5 	-94.0067
-0.1875 	-0.9375 	0.5 	-94.0426
-0.171875 	-0.9375 	0.5 	-94.1416
-0.15625 	-0.9375 	0.5 	-94.0674
-0.140625 	-0.9375 	0.5 	-93.9529
-0.125 	-0.9375 	0.5 	-93.9103
-0.109375 	-0.9375 	0.5 	-93.945
-0.09375 	-0.9375 	0.5 	-93.9804
-0.078125 	-0.9375 	0.5 	-93.9894
-0.0625 	-0.9375 	0.5 	-94.0042
-0.046875 	-0.9375 	0.5 	-94.0637
-0.03125 	-0.9375 	0.5 	-94.1015
-0.015625 	-0.9375 	0.5 	-94.1162
0 	-0.9375 	0.5 	-94.1582
0.015625 	-0.9375 	0.5 	-94.2129
0.03125 	-0.9375 	0.5 	-94.2644
0.046875 	-0.9375 	0.5 	-94.2815
0.0625 	-0.9375 	0.5 	-94.3349
0.078125 	-0.9375 	0.5 	-94.3966
0.09375 	-0.9375 	0.5 	-94.4437
0.109375 	-0.9375 	0.5 	-94.5585
0.125 	-0.9375 	0.5 	-94.5713
0.140625 	-0.9375 	0.5 	-94.6025
0.15625 	-0.9375 	0.5 	-94.6491
0.171875 	-0.9375 	0.5 	-94.6909
0.1875 	-0.9375 	0.5 	-94.7173
0.203125 	-0.9375 	0.5 	-94.7561
0.21875 	-0.9375 	0.5 	-94.7715
0.234375 	-0.9375 	0.5 	-94.7776
0.25 	-0.9375 	0.5 	-94.755
0.265625 	-0.9375 	0.5 	-94.7195
0.28125 	-0.9375 	0.5 	-94.76
0.296875 	-0.9375 	0.5 	-94.7672
0.3125 	-0.9375 	0.5 	-94.756
0.328125 	-0.9375 	0.5 	-94.6757
0.34375 	-0.9375 	0.5 	-94.613
0.359375 	-0.9375 	0.5 	-94.545
0.375 	-0.9375 	0.5 	-94.4768
0.390625 	-0.9375 	0.5 	-94.4116
0.40625 	-0.9375 	0.5 	-94.339
0.421875 	-0.9375 	0.5 	-94.248
0.4375 	-0.9375 	0.5 	-94.1564
0.453125 	-0.9375 	0.5 	-94.043
0.46875 	-0.9375 	0.5 	-93.9301
0.484375 	-0.9375 	0.5 	-93.812
0.5 	-0.9375 	0.5 	-93.684
0.515625 	-0.9375 	0.5 	-93.563
0.53125 	-0.9375 	0.5 	-93.403
0.546875 	-0.9375 	0.5 	-93.2498
0.5625 	-0.9375 	0.5 	-93.0757
0.578125 	-0.9375 	0.5 	-92.9171
0.59375 	-0.9375 	0.5 	-92.7842
0.609375 	-0.9375 	0.5 	-92.6478
0.625 	-0.9375 	0.5 	-92.4885
0.640625 	-0.9375 	0.5 	-92.3961
0.65625 	-0.9375 	0.5 	-92.1531
0.671875 	-0.9375 	0.5 	-92.0124
0.6875 	-0.9375 	0.5 	-91.8762
0.703125 	-0.9375 	0.5 	-91.7626
0.71875 	-0.9375 	0.5 	-91.6602
0.734375 	-0.9375 	0.5 	-91.4865
0.75 	-0.9375 	0.5 	-91.3275
0.765625 	-0.9375 	0.5 	-91.1881
0.78125 	-0.9375 	0.5 	-91.1122
0.796875 	-0.9375 	0.5 	-91.0268
0.8125 	-0.9375 	0.5 	-90.9121
0.828125 	-0.9375 	0.5 	-90.8275
0.84375 	-0.9375 	0.5 	-90.7719
0.859375 	-0.9375 	0.5 	-90.7648
0.875 	-0.9375 	0.5 	-90.6743
0.890625 	-0.9375 	0.5 	-90.6452
0.90625 	-0.9375 	0.5 	-90.6708
0.921875 	-0.9375 	0.5 	-90.7255
0.9375 	-0.9375 	0.5 	-90.6454
0.953125 	-0.9375 	0.5 	-90.6053
0.96875 	-0.9375 	0.5 	-90.5603
0.984375 	-0.9375 	0.5 	-90.6127
1 	-0.9375 	0.5 	-90.6963
1.01562 	-0.9375 	0.5 	-90.7682
1.03125 	-0.9375 	0.5 	-90.8431
1.04688 	-0.9375 	0.5 	-90.9181
1.0625 	-0.9375 	0.5 	-91.0495
1.07812 	-0.9375 	0.5 	-91.2045
1.09375 	-0.9375 	0.5 	-91.3496
1.10938 	-0.9375 	0.5 	-91.4653
1.125 	-0.9375 	0.5 	-91.6187
1.14062 	-0.9375 	0.5 	-91.8554
1.15625 	-0.9375 	0.5 	-92.0418
1.17188 	-0.9375 	0.5 	-92.2383
1.1875 	-0.9375 	0.5 	-92.3869
1.20312 	-0.9375 	0.5 	-92.6703
1.21875 	-0.9375 	0.5 	-92.9268
1.23438 	-0.9375 	0.5 	-93.2892
1.25 	-0.9375 	0.5 	-93.4895
1.26562 	-0.9375 	0.5 	-93.9396
1.28125 	-0.9375 	0.5 	-94.0648
1.29688 	-0.9375 	0.5 	-94.3246
1.3125 	-0.9375 	0.5 	-94.4684
1.32812 	-0.9375 	0.5 	-94.762
1.34375 	-0.9375 	0.5 	-95.1408
1.35938 	-0.9375 	0.5 	-95.4381
1.375 	-0.9375 	0.5 	-95.8605
1.39062 	-0.9375 	0.5 	-96.1687
1.40625 	-0.9375 	0.5 	-96.5201
1.42188 	-0.9375 	0.5 	-96.8238
1.4375 	-0.9375 	0.5 	-97.2187
1.45312 	-0.9375 	0.5 	-97.558
1.46875 	-0.9375 	0.5 	-97.9114
1.48438 	-0.9375 	0.5 	-98.209
-0.5 	-0.921875 	0.5 	-96.2433
-0.484375 	-0.921875 	0.5 	-96.0194
-0.46875 	-0.921875 	0.5 	-95.8844
-0.453125 	-0.921875 	0.5 	-95.6474
-0.4375 	-0.921875 	0.5 	-95.4755
-0.421875 	-0.921875 	0.5 	-95.3122
-0.40625 	-0.921875 	0.5 	-95.1998
-0.390625 	-0.921875 	0.5 	-95.0159
-0.375 	-0.921875 	0.5 	-94.8497
-0.359375 	-0.921875 	0.5 	-94.6775
-0.34375 	-0.921875 	0.5 	-94.5226
-0.328125 	-0.921875 	0.5 	-94.345
-0.3125 	-0.921875 	0.5 	-94.2258
-0.296875 	-0.921875 	0.5 	-94.1566
-0.28125 	-0.921875 	0.5 	-94.1035
-0.265625 	-0.921875 	0.5 	-94.0122
-0.25 	-0.921875 	0.5 	-93.8699
-0.234375 	-0.921875 	0.5 	-93.7598
-0.21875 	-0.921875 	0.5 	-93.6698
-0.203125 	-0.921875 	0.5 	-93.6936
-0.1875 	-0.921875 	0.5 	-93.876
-0.171875 	-0.921875 	0.5 	-93.7393
-0.15625 	-0.921875 	0.5 	-93.6771
-0.140625 	-0.921875 	0.5 	-93.6295
-0.125 	-0.921875 	0.5 	-93.6265
-0.109375 	-0.921875 	0.5 	-93.6424
-0.09375 	-0.921875 	0.5 	-93.675
-0.078125 	-0.921875 	0.5 	-93.7143
-0.0625 	-0.921875 	0.5 	-93.749
-0.046875 	-0.921875 	0.5 	-93.8009
-0.03125 	-0.921875 	0.5 	-93.8524
-0.015625 	-0.921875 	0.5 	-93.8865
0 	-0.921875 	0.5 	-93.9403
0.015625 	-0.921875 	0.5 	-93.9968
0.03125 	-0.921875 	0.5 	-94.0468
0.046875 	-0.921875 	0.5 	-94.1178
0.0625 	-0.921875 	0.5 	-94.1659
0.078125 	-0.921875 	0.5 	-94.2434
0.09375 	-0.921875 	0.5 	-94.32
0.109375 	-0.921875 	0.5 	-94.3665
0.125 	-0.921875 	0.5 	-94.404
0.140625 	-0.921875 	0.5 	-94.4667
0.15625 	-0.921875 	0.5 	-94.5131
0.171875 	-0.921875 	0.5 	-94.5626
0.1875 	-0.921875 	0.5 	-94.595
0.203125 	-0.921875 	0.5 	-94.6278
0.21875 	-0.921875 	0.5 	-94.6483
0.234375 	-0.921875 	0.5 	-94.6729
0.25 	-0.921875 	0.5 	-94.6743
0.265625 	-0.921875 	0.5 	-94.6462
0.28125 	-0.921875 	0.5 	-94.6689
0.296875 	-0.921875 	0.5 	-94.6594
0.3125 	-0.921875 	0.5 	-94.63
0.328125 	-0.921875 	0.5 	-94.5656
0.34375 	-0.921875 	0.5 	-94.523
0.359375 	-0.921875 	0.5 	-94.4644
0.375 	-0.921875 	0.5 	-94.3962
0.390625 	-0.921875 	0.5 	-94.3256
0.40625 	-0.921875 	0.5 	-94.2411
0.421875 	-0.921875 	0.5 	-94.1512
0.4375 	-0.921875 	0.5 	-94.0317
0.453125 	-0.921875 	0.5 	-93.9426
0.46875 	-0.921875 	0.5 	-93.7863
0.484375 	-0.921875 	0.5 	-93.6684
0.5 	-0.921875 	0.5 	-93.5565
0.515625 	-0.921875 	0.5 	-93.4367
0.53125 	-0.921875 	0.5 	-93.2429
0.546875 	-0.921875 	0.5 	-93.0689
0.5625 	-0.921875 	0.5 	-92.9023
0.578125 	-0.921875 	0.5 	-92.7358
0.59375 	-0.921875 	0.5 	-92.5707
0.609375 	-0.921875 	0.5 	-92.4419
0.625 	-0.921875 	0.5 	-92.3149
0.640625 	-0.921875 	0.5 	-92.1101
0.65625 	-0.921875 	0.5 	-91.9405
0.671875 	-0.921875 	0.5 	-91.7596
0.6875 	-0.921875 	0.5 	-91.5537
0.703125 	-0.921875 	0.5 	-91.4396
0.71875 	-0.921875 	0.5 	-91.3218
0.734375 	-0.921875 	0.5 	-91.209
0.75 	-0.921875 	0.5 	-91.0454
0.765625 	-0.921875 	0.5 	-90.8659
0.78125 	-0.921875 	0.5 	-90.7539
0.796875 	-0.921875 	0.5 	-90.6838
0.8125 	-0.921875 	0.5 	-90.5826
0.828125 	-0.921875 	0.5 	-90.4648
0.84375 	-0.921875 	0.5 	-90.3949
0.859375 	-0.921875 	0.5 	-90.3558
0.875 	-0.921875 	0.5 	-90.2848
0.890625 	-0.921875 	0.5 	-90.1716
0.90625 	-0.921875 	0.5 	-90.1941
0.921875 	-0.921875 	0.5 	-90.1895
0.9375 	-0.921875 	0.5 	-90.1957
0.953125 	-0.921875 	0.5 	-90.1354
0.96875 	-0.921875 	0.5 	-90.132
0.984375 	-0.921875 	0.5 	-90.1858
1 	-0.921875 	0.5 	-90.2658
1.01562 	-0.921875 	0.5 	-90.3357
1.03125 	-0.921875 	0.5 	-90.3995
1.04688 	-0.921875 	0.5 	-90.5196
1.0625 	-0.921875 	0.5 	-90.5945
1.07812 	-0.921875 	0.5 	-90.7493
1.09375 	-0.921875 	0.5 	-90.7932
1.10938 	-0.921875 	0.5 	-91.0609
1.125 	-0.921875 	0.5 	-91.1939
1.14062 	-0.921875 	0.5 	-91.4457
1.15625 	-0.921875 	0.5 	-91.6398
1.17188 	-0.921875 	0.5 	-91.8253
1.1875 	-0.921875 	0.5 	-92.0545
1.20312 	-0.921875 	0.5 	-92.2771
1.21875 	-0.921875 	0.5 	-92.4909
1.23438 	-0.921875 	0.5 	-92.8003
1.25 	-0.921875 	0.5 	-93.0955
1.26562 	-0.921875 	0.5 	-93.4741
1.28125 	-0.921875 	0.5 	-93.777
1.29688 	-0.921875 	0.5 	-93.9985
1.3125 	-0.921875 	0.5 	-94.2083
1.32812 	-0.921875 	0.5 	-94.5035
1.34375 	-0.921875 	0.5 	-94.7988
1.35938 	-0.921875 	0.5 	-95.1538
1.375 	-0.921875 	0.5 	-95.5145
1.39062 	-0.921875 	0.5 	-95.8751
1.40625 	-0.921875 	0.5 	-96.2099
1.42188 	-0.921875 	0.5 	-96.5766
1.4375 	-0.921875 	0.5 	-96.9533
1.45312 	-0.921875 	0.5 	-97.319
1.46875 	-0.921875 	0.5 	-97.6647
1.48438 	-0.921875 	0.5 	-97.9629
-0.5 	-0.90625 	0.5 	-96.0083
-0.484375 	-0.90625 	0.5 	-95.6469
-0.46875 	-0.90625 	0.5 	-95.5584
-0.453125 	-0.90625 	0.5 	-95.3512
-0.4375 	-0.90625 	0.5 	-95.1326
-0.421875 	-0.90625 	0.5 	-94.9914
-0.40625 	-0.90625 	0.5 	-94.9554
-0.390625 	-0.90625 	0.5 	-94.738
-0.375 	-0.90625 	0.5 	-94.513
-0.359375 	-0.90625 	0.5 	-94.3409
-0.34375 	-0.90625 	0.5 	-94.166
-0.328125 	-0.90625 	0.5 	-93.9992
-0.3125 	-0.90625 	0.5 	-93.8935
-0.296875 	-0.90625 	0.5 	-93.8327
-0.28125 	-0.90625 	0.5 	-93.7687
-0.265625 	-0.90625 	0.5 	-93.6466
-0.25 	-0.90625 	0.5 	-93.4675
-0.234375 	-0.90625 	0.5 	-93.3783
-0.21875 	-0.90625 	0.5 	-93.3938
-0.203125 	-0.90625 	0.5 	-93.4162
-0.1875 	-0.90625 	0.5 	-93.4135
-0.171875 	-0.90625 	0.5 	-93.3971
-0.15625 	-0.90625 	0.5 	-93.3597
-0.140625 	-0.90625 	0.5 	-93.3371
-0.125 	-0.90625 	0.5 	-93.3111
-0.109375 	-0.90625 	0.5 	-93.3478
-0.09375 	-0.90625 	0.5 	-93.3871
-0.078125 	-0.90625 	0.5 	-93.4211
-0.0625 	-0.90625 	0.5 	-93.4709
-0.046875 	-0.90625 	0.5 	-93.5123
-0.03125 	-0.90625 	0.5 	-93.5753
-0.015625 	-0.90625 	0.5 	-93.6625
0 	-0.90625 	0.5 	-93.7254
0.015625 	-0.90625 	0.5 	-93.7818
0.03125 	-0.90625 	0.5 	-93.8148
0.046875 	-0.90625 	0.5 	-93.9027
0.0625 	-0.90625 	0.5 	-93.9962
0.078125 	-0.90625 	0.5 	-94.0672
0.09375 	-0.90625 	0.5 	-94.1216
0.109375 	-0.90625 	0.5 	-94.2154
0.125 	-0.90625 	0.5 	-94.2487
0.140625 	-0.90625 	0.5 	-94.2835
0.15625 	-0.90625 	0.5 	-94.3764
0.171875 	-0.90625 	0.5 	-94.4303
0.1875 	-0.90625 	0.5 	-94.4867
0.203125 	-0.90625 	0.5 	-94.5429
0.21875 	-0.90625 	0.5 	-94.5578
0.234375 	-0.90625 	0.5 	-94.5687
0.25 	-0.90625 	0.5 	-94.5687
0.265625 	-0.90625 	0.5 	-94.5808
0.28125 	-0.90625 	0.5 	-94.5817
0.296875 	-0.90625 	0.5 	-94.5773
0.3125 	-0.90625 	0.5 	-94.5342
0.328125 	-0.90625 	0.5 	-94.4925
0.34375 	-0.90625 	0.5 	-94.433
0.359375 	-0.90625 	0.5 	-94.3777
0.375 	-0.90625 	0.5 	-94.3223
0.390625 	-0.90625 	0.5 	-94.2432
0.40625 	-0.90625 	0.5 	-94.1628
0.421875 	-0.90625 	0.5 	-94.0482
0.4375 	-0.90625 	0.5 	-93.9275
0.453125 	-0.90625 	0.5 	-93.8109
0.46875 	-0.90625 	0.5 	-93.6747
0.484375 	-0.90625 	0.5 	-93.5256
0.5 	-0.90625 	0.5 	-93.3909
0.515625 	-0.90625 	0.5 	-93.2571
0.53125 	-0.90625 	0.5 	-93.081
0.546875 	-0.90625 	0.5 	-92.9127
0.5625 	-0.90625 	0.5 	-92.7538
0.578125 	-0.90625 	0.5 	-92.5701
0.59375 	-0.90625 	0.5 	-92.4045
0.609375 	-0.90625 	0.5 	-92.2129
0.625 	-0.90625 	0.5 	-92.0894
0.640625 	-0.90625 	0.5 	-91.9066
0.65625 	-0.90625 	0.5 	-91.6674
0.671875 	-0.90625 	0.5 	-91.4954
0.6875 	-0.90625 	0.5 	-91.2911
0.703125 	-0.90625 	0.5 	-91.1772
0.71875 	-0.90625 	0.5 	-90.9989
0.734375 	-0.90625 	0.5 	-90.8415
0.75 	-0.90625 	0.5 	-90.6889
0.765625 	-0.90625 	0.5 	-90.5381
0.78125 	-0.90625 	0.5 	-90.4302
0.796875 	-0.90625 	0.5 	-90.3333
0.8125 	-0.90625 	0.5 	-90.2374
0.828125 	-0.90625 	0.5 	-90.095
0.84375 	-0.90625 	0.5 	-90.0028
0.859375 	-0.90625 	0.5 	-89.8927
0.875 	-0.90625 	0.5 	-89.8527
0.890625 	-0.90625 	0.5 	-89.7674
0.90625 	-0.90625 	0.5 	-89.7599
0.921875 	-0.90625 	0.5 	-89.7315
0.9375 	-0.90625 	0.5 	-89.7474
0.953125 	-0.90625 	0.5 	-89.7078
0.96875 	-0.90625 	0.5 	-89.7385
0.984375 	-0.90625 	0.5 	-89.7476
1 	-0.90625 	0.5 	-89.7908
1.01562 	-0.90625 	0.5 	-89.8772
1.03125 	-0.90625 	0.5 	-89.9667
1.04688 	-0.90625 	0.5 	-90.0853
1.0625 	-0.90625 	0.5 	-90.1775
1.07812 	-0.90625 	0.5 	-90.2901
1.09375 	-0.90625 	0.5 	-90.3678
1.10938 	-0.90625 	0.5 	-90.5759
1.125 	-0.90625 	0.5 	-90.7677
1.14062 	-0.90625 	0.5 	-91.0068
1.15625 	-0.90625 	0.5 	-91.2382
1.17188 	-0.90625 	0.5 	-91.3975
1.1875 	-0.90625 	0.5 	-91.6371
1.20312 	-0.90625 	0.5 	-91.8678
1.21875 	-0.90625 	0.5 	-92.0754
1.23438 	-0.90625 	0.5 	-92.392
1.25 	-0.90625 	0.5 	-92.7096
1.26562 	-0.90625 	0.5 	-93.0523
1.28125 	-0.90625 	0.5 	-93.3679
1.29688 	-0.90625 	0.5 	-93.6315
1.3125 	-0.90625 	0.5 	-93.9292
1.32812 	-0.90625 	0.5 	-94.1994
1.34375 	-0.90625 	0.5 	-94.489
1.35938 	-0.90625 	0.5 	-94.8517
1.375 	-0.90625 	0.5 	-95.1192
1.39062 	-0.90625 	0.5 	-95.4803
1.40625 	-0.90625 	0.5 	-95.9614
1.42188 	-0.90625 	0.5 	-96.3332
1.4375 	-0.90625 	0.5 	-96.7032
1.45312 	-0.90625 	0.5 	-97.0638
1.46875 	-0.90625 	0.5 	-97.4111
1.48438 	-0.90625 	0.5 	-97.7391
-0.5 	-0.890625 	0.5 	-95.6778
-0.484375 	-0.890625 	0.5 	-95.4477
-0.46875 	-0.890625 	0.5 	-95.2175
-0.453125 	-0.890625 	0.5 	-95.0382
-0.4375 	-0.890625 	0.5 	-94.8577
-0.421875 	-0.890625 	0.5 	-94.6771
-0.40625 	-0.890625 	0.5 	-94.5153
-0.390625 	-0.890625 	0.5 	-94.3014
-0.375 	-0.890625 	0.5 	-94.112
-0.359375 	-0.890625 	0.5 	-93.9767
-0.34375 	-0.890625 	0.5 	-93.7899
-0.328125 	-0.890625 	0.5 	-93.6757
-0.3125 	-0.890625 	0.5 	-93.5791
-0.296875 	-0.890625 	0.5 	-93.4896
-0.28125 	-0.890625 	0.5 	-93.4051
-0.265625 	-0.890625 	0.5 	-93.2543
-0.25 	-0.890625 	0.5 	-93.1084
-0.234375 	-0.890625 	0.5 	-93.0025
-0.21875 	-0.890625 	0.5 	-93.0454
-0.203125 	-0.890625 	0.5 	-93.0081
-0.1875 	-0.890625 	0.5 	-92.9372
-0.171875 	-0.890625 	0.5 	-92.9888
-0.15625 	-0.890625 	0.5 	-93.0122
-0.140625 	-0.890625 	0.5 	-92.9787
-0.125 	-0.890625 	0.5 	-93.0071
-0.109375 	-0.890625 	0.5 	-93.0315