-0.5 	-1 	0.5 	39.834 	-0.0287163 	-1.91748e-20
-0.484375 	-1 	0.5 	39.8348 	-0.0315876 	-2.21707e-20
-0.46875 	-1 	0.5 	39.8356 	-0.0344589 	-2.51667e-20
-0.453125 	-1 	0.5 	39.8363 	-0.0375095 	1.9666e-20
-0.4375 	-1 	0.5 	39.837 	-0.0406255 	-4.10103e-19
-0.421875 	-1 	0.5 	39.8372 	-0.0433119 	-9.38772e-19
-0.40625 	-1 	0.5 	39.8391 	-0.0466109 	-2.34965e-19
-0.390625 	-1 	0.5 	39.8404 	-0.0501305 	-2.10841e-20
-0.375 	-1 	0.5 	39.8422 	-0.0527188 	2.90585e-20
-0.359375 	-1 	0.5 	39.8438 	-0.0555976 	3.47995e-20
-0.34375 	-1 	0.5 	39.8458 	-0.0589506 	4.50092e-20
-0.328125 	-1 	0.5 	39.8476 	-0.0621752 	-2.65521e-20
-0.3125 	-1 	0.5 	39.8486 	-0.0645231 	-5.48773e-19
-0.296875 	-1 	0.5 	39.8511 	-0.0668946 	-9.19906e-20
-0.28125 	-1 	0.5 	39.8533 	-0.0697708 	7.6082e-19
-0.265625 	-1 	0.5 	39.8562 	-0.0723997 	1.97094e-19
-0.25 	-1 	0.5 	39.859 	-0.0756808 	1.78375e-19
-0.234375 	-1 	0.5 	39.8623 	-0.0787119 	-3.36677e-21
-0.21875 	-1 	0.5 	39.8642 	-0.0806135 	-3.13791e-22
-0.203125 	-1 	0.5 	39.8666 	-0.0820257 	6.9848e-20
-0.1875 	-1 	0.5 	39.8688 	-0.0847337 	2.84781e-19
-0.171875 	-1 	0.5 	39.8722 	-0.0864361 	1.17929e-19
-0.15625 	-1 	0.5 	39.8759 	-0.0880134 	-1.33614e-19
-0.140625 	-1 	0.5 	39.879 	-0.0899342 	-1.53161e-20
-0.125 	-1 	0.5 	39.8822 	-0.0917699 	1.93216e-19
-0.109375 	-1 	0.5 	39.8851 	-0.0937129 	5.34777e-20
-0.09375 	-1 	0.5 	39.8893 	-0.0958498 	-7.72439e-20
-0.078125 	-1 	0.5 	39.8929 	-0.0961469 	6.29722e-21
-0.0625 	-1 	0.5 	39.8963 	-0.0968324 	1.40727e-19
-0.046875 	-1 	0.5 	39.9 	-0.0979221 	-2.18842e-19
-0.03125 	-1 	0.5 	39.9038 	-0.0990438 	-3.0023e-19
-0.015625 	-1 	0.5 	39.9078 	-0.098979 	-1.7417e-20
0 	-1 	0.5 	39.9127 	-0.0973158 	-4.79102e-20
0.015625 	-1 	0.5 	39.9162 	-0.098422 	-3.08349e-19
0.03125 	-1 	0.5 	39.9196 	-0.0994859 	-4.83646e-19
0.046875 	-1 	0.5 	39.9235 	-0.0998726 	-2.05019e-20
0.0625 	-1 	0.5 	39.9273 	-0.0988143 	1.15215e-20
0.078125 	-1 	0.5 	39.9309 	-0.0982251 	6.75574e-20
0.09375 	-1 	0.5 	39.9346 	-0.0971866 	5.24438e-20
0.109375 	-1 	0.5 	39.9388 	-0.0962837 	1.0074e-19
0.125 	-1 	0.5 	39.9423 	-0.0953744 	-3.63153e-19
0.140625 	-1 	0.5 	39.9454 	-0.093598 	1.15663e-19
0.15625 	-1 	0.5 	39.9485 	-0.0924401 	-8.35504e-20
0.171875 	-1 	0.5 	39.9514 	-0.0909955 	9.54664e-21
0.1875 	-1 	0.5 	39.9545 	-0.0895296 	5.91459e-20
0.203125 	-1 	0.5 	39.959 	-0.087736 	1.12654e-19
0.21875 	-1 	0.5 	39.9619 	-0.0856338 	9.80109e-21
0.234375 	-1 	0.5 	39.9642 	-0.0831791 	-7.65135e-21
0.25 	-1 	0.5 	39.9671 	-0.0801651 	2.82468e-21
0.265625 	-1 	0.5 	39.9694 	-0.0774174 	-2.33483e-20
0.28125 	-1 	0.5 	39.9719 	-0.0750188 	-1.19936e-19
0.296875 	-1 	0.5 	39.9742 	-0.0723745 	-1.22539e-19
0.3125 	-1 	0.5 	39.9764 	-0.0695002 	-3.15221e-19
0.328125 	-1 	0.5 	39.9785 	-0.0666695 	-6.60573e-20
0.34375 	-1 	0.5 	39.9802 	-0.0637447 	6.69497e-20
0.359375 	-1 	0.5 	39.9814 	-0.0605089 	4.44429e-20
0.375 	-1 	0.5 	39.9833 	-0.0573011 	9.32281e-20
0.390625 	-1 	0.5 	39.9845 	-0.0536159 	-5.59641e-20
0.40625 	-1 	0.5 	39.9853 	-0.0504922 	3.20947e-20
0.421875 	-1 	0.5 	39.9863 	-0.0473284 	7.11702e-20
0.4375 	-1 	0.5 	39.9872 	-0.044553 	-6.8391e-20
0.453125 	-1 	0.5 	39.9875 	-0.0414356 	3.3184e-20
0.46875 	-1 	0.5 	39.988 	-0.0384236 	2.25712e-19
0.484375 	-1 	0.5 	39.9884 	-0.035097 	1.44141e-20
0.5 	-1 	0.5 	39.9883 	-0.0318681 	-9.1531e-21
0.515625 	-1 	0.5 	39.988 	-0.0285126 	-2.83485e-20
0.53125 	-1 	0.5 	39.9875 	-0.0252045 	-2.7996e-20
0.546875 	-1 	0.5 	39.987 	-0.0220261 	-2.33413e-20
0.5625 	-1 	0.5 	39.9867 	-0.0196091 	-1.6855e-19
0.578125 	-1 	0.5 	39.9853 	-0.016706 	9.90382e-20
0.59375 	-1 	0.5 	39.9842 	-0.0137671 	6.12258e-20
0.609375 	-1 	0.5 	39.9835 	-0.0105953 	4.22404e-20
0.625 	-1 	0.5 	39.9824 	-0.00827988 	6.39248e-20
0.640625 	-1 	0.5 	39.9811 	-0.0052751 	5.81394e-19
0.65625 	-1 	0.5 	39.9793 	-0.00323205 	2.31013e-19
0.671875 	-1 	0.5 	39.9776 	-0.00108302 	1.6978e-19
0.6875 	-1 	0.5 	39.9758 	0.000846522 	5.79197e-20
0.703125 	-1 	0.5 	39.974 	0.00293637 	2.81203e-20
0.71875 	-1 	0.5 	39.9721 	0.00507552 	2.61395e-20
0.734375 	-1 	0.5 	39.9699 	0.00669934 	-1.22691e-20
0.75 	-1 	0.5 	39.968 	0.00851253 	-3.6436e-20
0.765625 	-1 	0.5 	39.9657 	0.00984442 	-7.37521e-20
0.78125 	-1 	0.5 	39.9638 	0.0111403 	5.06392e-21
0.796875 	-1 	0.5 	39.9615 	0.0128361 	4.45815e-20
0.8125 	-1 	0.5 	39.9591 	0.0140375 	1.31015e-19
0.828125 	-1 	0.5 	39.9566 	0.014684 	6.85542e-19
0.84375 	-1 	0.5 	39.9546 	0.0154466 	3.34529e-20
0.859375 	-1 	0.5 	39.9519 	0.0161787 	-3.2302e-19
0.875 	-1 	0.5 	39.9496 	0.0164033 	-2.03395e-19
0.890625 	-1 	0.5 	39.9474 	0.016681 	-1.73551e-19
0.90625 	-1 	0.5 	39.945 	0.0171603 	1.9075e-19
0.921875 	-1 	0.5 	39.9424 	0.0170268 	4.78913e-19
0.9375 	-1 	0.5 	39.9401 	0.0167744 	5.96834e-19
0.953125 	-1 	0.5 	39.9378 	0.0166978 	4.59721e-19
0.96875 	-1 	0.5 	39.9355 	0.0166212 	3.22607e-19
0.984375 	-1 	0.5 	39.9333 	0.0161966 	3.55513e-19
1 	-1 	0.5 	39.9312 	0.0155667 	4.83713e-19
1.01562 	-1 	0.5 	39.9291 	0.0149305 	5.65603e-19
1.03125 	-1 	0.5 	39.9269 	0.014203 	-2.0833e-20
1.04688 	-1 	0.5 	39.9249 	0.013529 	-3.48686e-19
1.0625 	-1 	0.5 	39.9228 	0.0129648 	-8.86043e-20
1.07812 	-1 	0.5 	39.9206 	0.0123554 	-9.29815e-20
1.09375 	-1 	0.5 	39.919 	0.0113244 	-6.61074e-19
1.10938 	-1 	0.5 	39.9172 	0.00994839 	-3.4423e-19
1.125 	-1 	0.5 	39.9156 	0.00843671 	-2.03777e-19
1.14062 	-1 	0.5 	39.9145 	0.00677036 	-3.36452e-19
1.15625 	-1 	0.5 	39.9125 	0.00577682 	1.29135e-19
1.17188 	-1 	0.5 	39.9116 	0.00388669 	6.39571e-19
1.1875 	-1 	0.5 	39.9099 	0.00215105 	-6.20513e-20
1.20312 	-1 	0.5 	39.9089 	0.000730851 	-4.92165e-20
1.21875 	-1 	0.5 	39.908 	-0.00142292 	2.32208e-19
1.23438 	-1 	0.5 	39.907 	-0.00337653 	3.4667e-19
1.25 	-1 	0.5 	39.9061 	-0.00477799 	1.89993e-19
1.26562 	-1 	0.5 	39.9051 	-0.00601636 	5.16616e-20
1.28125 	-1 	0.5 	39.9041 	-0.00764604 	8.59308e-20
1.29688 	-1 	0.5 	39.9036 	-0.00919465 	3.78613e-20
1.3125 	-1 	0.5 	39.9028 	-0.0107754 	2.07293e-20
1.32812 	-1 	0.5 	39.9022 	-0.0124431 	1.71167e-20
1.34375 	-1 	0.5 	39.9017 	-0.0142767 	3.93114e-20
1.35938 	-1 	0.5 	39.9016 	-0.015856 	5.06719e-20
1.375 	-1 	0.5 	39.9013 	-0.0176034 	-3.40187e-20
1.39062 	-1 	0.5 	39.901 	-0.0195719 	-1.11413e-19
1.40625 	-1 	0.5 	39.9006 	-0.0213869 	-1.19709e-19
1.42188 	-1 	0.5 	39.9002 	-0.0230639 	1.30367e-19
1.4375 	-1 	0.5 	39.9 	-0.0247852 	8.85609e-20
1.45312 	-1 	0.5 	39.9002 	-0.0265312 	-6.67626e-20
1.46875 	-1 	0.5 	39.9004 	-0.0282685 	-1.17129e-19
1.48438 	-1 	0.5 	39.9006 	-0.0300087 	-2.41442e-19
-0.5 	-0.984375 	0.5 	39.8305 	-0.0291719 	3.94663e-21
-0.484375 	-0.984375 	0.5 	39.8313 	-0.0320448 	1.1578e-21
-0.46875 	-0.984375 	0.5 	39.8318 	-0.0350273 	1.29403e-20
-0.453125 	-0.984375 	0.5 	39.8327 	-0.0386742 	-4.89614e-20
-0.4375 	-0.984375 	0.5 	39.8334 	-0.0414629 	1.69241e-19
-0.421875 	-0.984375 	0.5 	39.8349 	-0.0453623 	-8.02218e-20
-0.40625 	-0.984375 	0.5 	39.8363 	-0.0486939 	-1.5451e-19
-0.390625 	-0.984375 	0.5 	39.8373 	-0.0515242 	2.71998e-19
-0.375 	-0.984375 	0.5 	39.8385 	-0.0543224 	4.20231e-19
-0.359375 	-0.984375 	0.5 	39.8405 	-0.0578932 	-2.23783e-19
-0.34375 	-0.984375 	0.5 	39.8424 	-0.0610966 	-1.6408e-19
-0.328125 	-0.984375 	0.5 	39.8443 	-0.0640582 	1.02811e-20
-0.3125 	-0.984375 	0.5 	39.8456 	-0.0666908 	-3.85345e-19
-0.296875 	-0.984375 	0.5 	39.8479 	-0.0693927 	6.6393e-19
-0.28125 	-0.984375 	0.5 	39.8506 	-0.0721291 	4.99134e-19
-0.265625 	-0.984375 	0.5 	39.8531 	-0.0748022 	2.9338e-19
-0.25 	-0.984375 	0.5 	39.8561 	-0.0775946 	2.72696e-19
-0.234375 	-0.984375 	0.5 	39.8593 	-0.080597 	9.60876e-20
-0.21875 	-0.984375 	0.5 	39.8616 	-0.0831279 	3.48445e-21
-0.203125 	-0.984375 	0.5 	39.864 	-0.0849496 	9.93912e-20
-0.1875 	-0.984375 	0.5 	39.8673 	-0.0868296 	-7.53113e-21
-0.171875 	-0.984375 	0.5 	39.8703 	-0.0894111 	-3.17675e-19
-0.15625 	-0.984375 	0.5 	39.8736 	-0.0915442 	-2.4785e-19
-0.140625 	-0.984375 	0.5 	39.8771 	-0.0930109 	-6.9158e-19
-0.125 	-0.984375 	0.5 	39.88 	-0.0950318 	-4.17152e-19
-0.109375 	-0.984375 	0.5 	39.8831 	-0.0971723 	9.93759e-20
-0.09375 	-0.984375 	0.5 	39.8872 	-0.0981439 	2.16324e-19
-0.078125 	-0.984375 	0.5 	39.8912 	-0.0991594 	2.61006e-19
-0.0625 	-0.984375 	0.5 	39.8952 	-0.100492 	1.70933e-19
-0.046875 	-0.984375 	0.5 	39.8992 	-0.101422 	-4.8488e-20
-0.03125 	-0.984375 	0.5 	39.9033 	-0.102336 	-3.96975e-19
-0.015625 	-0.984375 	0.5 	39.907 	-0.102713 	-4.21355e-20
0 	-0.984375 	0.5 	39.9104 	-0.103108 	3.71492e-19
0.015625 	-0.984375 	0.5 	39.9151 	-0.102721 	-1.68829e-19
0.03125 	-0.984375 	0.5 	39.919 	-0.103519 	-4.49716e-20
0.046875 	-0.984375 	0.5 	39.9237 	-0.103752 	-1.63522e-20
0.0625 	-0.984375 	0.5 	39.9273 	-0.102676 	3.9603e-21
0.078125 	-0.984375 	0.5 	39.9312 	-0.101747 	4.09018e-20
0.09375 	-0.984375 	0.5 	39.9355 	-0.100906 	7.89521e-20
0.109375 	-0.984375 	0.5 	39.9397 	-0.099874 	8.37087e-20
0.125 	-0.984375 	0.5 	39.9436 	-0.0988843 	7.50677e-20
0.140625 	-0.984375 	0.5 	39.9467 	-0.0974904 	-1.53453e-20
0.15625 	-0.984375 	0.5 	39.95 	-0.0960294 	-8.68517e-20
0.171875 	-0.984375 	0.5 	39.9534 	-0.0944428 	-9.29006e-20
0.1875 	-0.984375 	0.5 	39.9564 	-0.0923965 	3.5604e-19
0.203125 	-0.984375 	0.5 	39.9596 	-0.0908249 	7.56447e-20
0.21875 	-0.984375 	0.5 	39.9633 	-0.0888187 	3.5774e-20
0.234375 	-0.984375 	0.5 	39.9664 	-0.0857539 	1.45951e-19
0.25 	-0.984375 	0.5 	39.9696 	-0.0831365 	-4.7813e-20
0.265625 	-0.984375 	0.5 	39.9717 	-0.0801394 	-2.07712e-21
0.28125 	-0.984375 	0.5 	39.9743 	-0.077252 	-2.99245e-19
0.296875 	-0.984375 	0.5 	39.9767 	-0.0738037 	-3.69959e-20
0.3125 	-0.984375 	0.5 	39.9787 	-0.0709272 	-5.78731e-20
0.328125 	-0.984375 	0.5 	39.9807 	-0.0681965 	-8.17101e-20
0.34375 	-0.984375 	0.5 	39.9826 	-0.0654166 	-9.69661e-20
0.359375 	-0.984375 	0.5 	39.9846 	-0.0622864 	-3.9192e-20
0.375 	-0.984375 	0.5 	39.9864 	-0.0588943 	1.57731e-20
0.390625 	-0.984375 	0.5 	39.9877 	-0.0550918 	-1.652e-19
0.40625 	-0.984375 	0.5 	39.9885 	-0.0518508 	-1.44353e-19
0.421875 	-0.984375 	0.5 	39.9895 	-0.0486312 	-1.94941e-20
0.4375 	-0.984375 	0.5 	39.99 	-0.0448684 	-2.73102e-20
0.453125 	-0.984375 	0.5 	39.9904 	-0.0415689 	-3.1203e-20
0.46875 	-0.984375 	0.5 	39.9909 	-0.0384073 	1.36044e-19
0.484375 	-0.984375 	0.5 	39.9914 	-0.0351448 	2.16894e-20
0.5 	-0.984375 	0.5 	39.9912 	-0.0317952 	-4.77925e-20
0.515625 	-0.984375 	0.5 	39.991 	-0.0282549 	-9.74039e-20
0.53125 	-0.984375 	0.5 	39.9904 	-0.0243171 	2.00431e-20
0.546875 	-0.984375 	0.5 	39.9895 	-0.0216497 	1.33396e-20
0.5625 	-0.984375 	0.5 	39.9891 	-0.0187954 	-3.95635e-20
0.578125 	-0.984375 	0.5 	39.9882 	-0.0146379 	2.73491e-19
0.59375 	-0.984375 	0.5 	39.9869 	-0.0120265 	1.87457e-19
0.609375 	-0.984375 	0.5 	39.9857 	-0.0094411 	9.65465e-20
0.625 	-0.984375 	0.5 	39.9844 	-0.00700926 	-1.14781e-19
0.640625 	-0.984375 	0.5 	39.983 	-0.00455297 	-4.3427e-19
0.65625 	-0.984375 	0.5 	39.9815 	-0.00203597 	-3.71803e-19
0.671875 	-0.984375 	0.5 	39.9795 	0.000607741 	8.75628e-20
0.6875 	-0.984375 	0.5 	39.9776 	0.00280632 	3.02439e-20
0.703125 	-0.984375 	0.5 	39.9759 	0.00497503 	8.02899e-20
0.71875 	-0.984375 	0.5 	39.9736 	0.00705949 	5.71968e-20
0.734375 	-0.984375 	0.5 	39.9717 	0.00885609 	2.63181e-21
0.75 	-0.984375 	0.5 	39.9694 	0.0103881 	-4.91627e-20
0.765625 	-0.984375 	0.5 	39.9671 	0.0119096 	-1.13437e-19
0.78125 	-0.984375 	0.5 	39.9647 	0.0133821 	-9.24885e-20
0.796875 	-0.984375 	0.5 	39.9623 	0.0148646 	-5.18407e-20
0.8125 	-0.984375 	0.5 	39.9599 	0.0162899 	-1.86846e-21
0.828125 	-0.984375 	0.5 	39.9576 	0.0170792 	-9.51966e-21
0.84375 	-0.984375 	0.5 	39.9549 	0.0178275 	-7.39711e-19
0.859375 	-0.984375 	0.5 	39.9522 	0.0185375 	-6.14248e-19
0.875 	-0.984375 	0.5 	39.9498 	0.0189538 	-2.07033e-19
0.890625 	-0.984375 	0.5 	39.9474 	0.0193195 	9.07568e-20
0.90625 	-0.984375 	0.5 	39.9446 	0.0194825 	4.69981e-19
0.921875 	-0.984375 	0.5 	39.9421 	0.0195286 	3.59547e-19
0.9375 	-0.984375 	0.5 	39.9396 	0.0190362 	8.25795e-19
0.953125 	-0.984375 	0.5 	39.9375 	0.0192883 	2.11683e-19
0.96875 	-0.984375 	0.5 	39.9347 	0.0192451 	-2.15493e-19
0.984375 	-0.984375 	0.5 	39.9322 	0.0188737 	3.90878e-19
1 	-0.984375 	0.5 	39.9296 	0.0176653 	1.69166e-19
1.01562 	-0.984375 	0.5 	39.9275 	0.0170187 	1.75679e-19
1.03125 	-0.984375 	0.5 	39.9256 	0.0163046 	-3.65257e-19
1.04688 	-0.984375 	0.5 	39.9235 	0.0156959 	-3.35045e-19
1.0625 	-0.984375 	0.5 	39.9215 	0.0150872 	-3.04833e-19
1.07812 	-0.984375 	0.5 	39.9194 	0.0144949 	-1.88924e-19
1.09375 	-0.984375 	0.5 	39.9176 	0.0131155 	-1.30306e-19
1.10938 	-0.984375 	0.5 	39.9158 	0.0116913 	-5.11686e-20
1.125 	-0.984375 	0.5 	39.9141 	0.0102971 	9.63187e-20
1.14062 	-0.984375 	0.5 	39.9125 	0.0088802 	1.40221e-19
1.15625 	-0.984375 	0.5 	39.9108 	0.00738456 	1.34059e-19
1.17188 	-0.984375 	0.5 	39.9095 	0.00549166 	1.05745e-19
1.1875 	-0.984375 	0.5 	39.9082 	0.00359945 	8.01446e-20
1.20312 	-0.984375 	0.5 	39.9069 	0.00157288 	6.59791e-20
1.21875 	-0.984375 	0.5 	39.9059 	-0.000272859 	5.3721e-20
1.23438 	-0.984375 	0.5 	39.9049 	-0.00203468 	5.04969e-20
1.25 	-0.984375 	0.5 	39.904 	-0.0037965 	4.72728e-20
1.26562 	-0.984375 	0.5 	39.903 	-0.00554838 	4.51195e-20
1.28125 	-0.984375 	0.5 	39.9022 	-0.00707039 	8.66942e-20
1.29688 	-0.984375 	0.5 	39.9017 	-0.00866921 	7.96426e-20
1.3125 	-0.984375 	0.5 	39.9011 	-0.0104415 	9.24674e-20
1.32812 	-0.984375 	0.5 	39.9006 	-0.0122139 	1.05292e-19
1.34375 	-0.984375 	0.5 	39.9 	-0.0139717 	1.15819e-19
1.35938 	-0.984375 	0.5 	39.8995 	-0.015713 	1.04583e-19
1.375 	-0.984375 	0.5 	39.8992 	-0.017713 	4.74738e-20
1.39062 	-0.984375 	0.5 	39.899 	-0.0197131 	-9.63505e-21
1.40625 	-0.984375 	0.5 	39.8986 	-0.0214411 	-5.00991e-20
1.42188 	-0.984375 	0.5 	39.8981 	-0.0231192 	1.65523e-19
1.4375 	-0.984375 	0.5 	39.8981 	-0.0248572 	1.33557e-20
1.45312 	-0.984375 	0.5 	39.8983 	-0.0265935 	1.62623e-21
1.46875 	-0.984375 	0.5 	39.8985 	-0.0283308 	-4.56767e-20
1.48438 	-0.984375 	0.5 	39.8987 	-0.0300709 	-1.6999e-19
-0.5 	-0.96875 	0.5 	39.8267 	-0.0297764 	4.68446e-20
-0.484375 	-0.96875 	0.5 	39.8275 	-0.0326395 	4.2759e-20
-0.46875 	-0.96875 	0.5 	39.8283 	-0.0360977 	2.52247e-20
-0.453125 	-0.96875 	0.5 	39.8292 	-0.0397488 	-4.01507e-20
-0.4375 	-0.96875 	0.5 	39.8296 	-0.0426751 	6.2536e-21
-0.421875 	-0.96875 	0.5 	39.831 	-0.046254 	-8.76536e-20
-0.40625 	-0.96875 	0.5 	39.832 	-0.0499758 	-5.28323e-19
-0.390625 	-0.96875 	0.5 	39.8336 	-0.0531288 	-5.09553e-20
-0.375 	-0.96875 	0.5 	39.8348 	-0.0559284 	1.08528e-19
-0.359375 	-0.96875 	0.5 	39.8371 	-0.0601702 	-4.7438e-19
-0.34375 	-0.96875 	0.5 	39.839 	-0.0631903 	-3.35947e-19
-0.328125 	-0.96875 	0.5 	39.8409 	-0.0662104 	-1.97514e-19
-0.3125 	-0.96875 	0.5 	39.8427 	-0.0689247 	5.18644e-20
-0.296875 	-0.96875 	0.5 	39.8448 	-0.0714886 	1.49688e-20
-0.28125 	-0.96875 	0.5 	39.8469 	-0.0740343 	6.06221e-21
-0.265625 	-0.96875 	0.5 	39.8496 	-0.0772041 	2.11726e-19
-0.25 	-0.96875 	0.5 	39.8522 	-0.0809188 	6.40358e-19
-0.234375 	-0.96875 	0.5 	39.8553 	-0.0835261 	5.46227e-19
-0.21875 	-0.96875 	0.5 	39.8587 	-0.0855103 	1.62175e-19
-0.203125 	-0.96875 	0.5 	39.8619 	-0.087887 	-1.05432e-19
-0.1875 	-0.96875 	0.5 	39.8649 	-0.0905062 	-3.22895e-19
-0.171875 	-0.96875 	0.5 	39.8679 	-0.0931253 	-5.40358e-19
-0.15625 	-0.96875 	0.5 	39.8713 	-0.0949791 	-3.05337e-19
-0.140625 	-0.96875 	0.5 	39.8747 	-0.0965434 	-5.58209e-19
-0.125 	-0.96875 	0.5 	39.8779 	-0.0987015 	3.27192e-20
-0.109375 	-0.96875 	0.5 	39.8819 	-0.100606 	1.87404e-19
-0.09375 	-0.96875 	0.5 	39.8858 	-0.101808 	2.40481e-19
-0.078125 	-0.96875 	0.5 	39.8897 	-0.10303 	2.33558e-20
-0.0625 	-0.96875 	0.5 	39.8942 	-0.104533 	1.33433e-19
-0.046875 	-0.96875 	0.5 	39.8983 	-0.104439 	6.39939e-19
-0.03125 	-0.96875 	0.5 	39.9022 	-0.105817 	2.26946e-19
-0.015625 	-0.96875 	0.5 	39.906 	-0.106908 	-7.54343e-20
0 	-0.96875 	0.5 	39.9098 	-0.107125 	-5.57632e-20
0.015625 	-0.96875 	0.5 	39.9138 	-0.107327 	-4.91069e-20
0.03125 	-0.96875 	0.5 	39.9186 	-0.107339 	-5.37898e-20
0.046875 	-0.96875 	0.5 	39.9238 	-0.107631 	-1.22025e-20
0.0625 	-0.96875 	0.5 	39.9273 	-0.106852 	1.56459e-21
0.078125 	-0.96875 	0.5 	39.9313 	-0.106106 	9.83475e-21
0.09375 	-0.96875 	0.5 	39.9358 	-0.105432 	9.19626e-20
0.109375 	-0.96875 	0.5 	39.9401 	-0.104346 	9.33572e-20
0.125 	-0.96875 	0.5 	39.9446 	-0.102777 	1.63825e-19
0.140625 	-0.96875 	0.5 	39.9483 	-0.100871 	1.52148e-19
0.15625 	-0.96875 	0.5 	39.9517 	-0.0998594 	-2.45689e-19
0.171875 	-0.96875 	0.5 	39.955 	-0.0978657 	7.77697e-21
0.1875 	-0.96875 	0.5 	39.9586 	-0.095466 	3.89428e-19
0.203125 	-0.96875 	0.5 	39.9617 	-0.093925 	-8.12174e-21
0.21875 	-0.96875 	0.5 	39.9652 	-0.091793 	2.14104e-20
0.234375 	-0.96875 	0.5 	39.9687 	-0.089208 	2.10946e-21
0.25 	-0.96875 	0.5 	39.9719 	-0.086156 	-5.41437e-20
0.265625 	-0.96875 	0.5 	39.9746 	-0.0827315 	-3.50738e-19
0.28125 	-0.96875 	0.5 	39.9771 	-0.0800672 	4.04417e-20
0.296875 	-0.96875 	0.5 	39.9798 	-0.0768717 	5.60324e-20
0.3125 	-0.96875 	0.5 	39.9819 	-0.0734947 	2.06816e-20
0.328125 	-0.96875 	0.5 	39.984 	-0.0704078 	1.88215e-20
0.34375 	-0.96875 	0.5 	39.9858 	-0.0668704 	-3.74111e-19
0.359375 	-0.96875 	0.5 	39.9876 	-0.0634838 	-3.24331e-19
0.375 	-0.96875 	0.5 	39.9894 	-0.0603005 	-6.36873e-20
0.390625 	-0.96875 	0.5 	39.9907 	-0.0569487 	-5.63251e-20
0.40625 	-0.96875 	0.5 	39.9921 	-0.0531489 	-1.5158e-20
0.421875 	-0.96875 	0.5 	39.9931 	-0.0493562 	7.87862e-20
0.4375 	-0.96875 	0.5 	39.9931 	-0.046298 	5.28861e-19
0.453125 	-0.96875 	0.5 	39.9934 	-0.0422158 	-1.59447e-19
0.46875 	-0.96875 	0.5 	39.9939 	-0.0387982 	-9.24729e-20
0.484375 	-0.96875 	0.5 	39.9944 	-0.0349253 	6.19629e-21
0.5 	-0.96875 	0.5 	39.9941 	-0.031404 	3.16162e-20
0.515625 	-0.96875 	0.5 	39.9939 	-0.0278893 	-1.44929e-19
0.53125 	-0.96875 	0.5 	39.9933 	-0.0243133 	-4.61429e-20
0.546875 	-0.96875 	0.5 	39.9926 	-0.0212311 	-7.37593e-20
0.5625 	-0.96875 	0.5 	39.9919 	-0.0179088 	1.20975e-19
0.578125 	-0.96875 	0.5 	39.9906 	-0.0146372 	5.46055e-21
0.59375 	-0.96875 	0.5 	39.9896 	-0.0115184 	-1.46714e-21
0.609375 	-0.96875 	0.5 	39.9882 	-0.00839482 	-6.30527e-20
0.625 	-0.96875 	0.5 	39.9867 	-0.00557372 	3.10193e-19
0.640625 	-0.96875 	0.5 	39.9852 	-0.00285245 	-1.53453e-20
0.65625 	-0.96875 	0.5 	39.9837 	-0.000354525 	-7.28866e-20
0.671875 	-0.96875 	0.5 	39.9816 	0.00227386 	1.48483e-19
0.6875 	-0.96875 	0.5 	39.9796 	0.00486937 	1.21068e-19
0.703125 	-0.96875 	0.5 	39.9775 	0.00696249 	1.40111e-19
0.71875 	-0.96875 	0.5 	39.9752 	0.00904345 	8.8254e-20
0.734375 	-0.96875 	0.5 	39.9731 	0.0110327 	-3.90586e-20
0.75 	-0.96875 	0.5 	39.9708 	0.0125612 	-9.51066e-20
0.765625 	-0.96875 	0.5 	39.9683 	0.0144793 	-4.82772e-20
0.78125 	-0.96875 	0.5 	39.9662 	0.0160119 	-5.06553e-19
0.796875 	-0.96875 	0.5 	39.9638 	0.017324 	-4.66058e-19
0.8125 	-0.96875 	0.5 	39.9608 	0.0185254 	5.70566e-20
0.828125 	-0.96875 	0.5 	39.958 	0.0194416 	-1.47182e-20
0.84375 	-0.96875 	0.5 	39.9552 	0.0200554 	-5.49228e-20
0.859375 	-0.96875 	0.5 	39.9526 	0.0207925 	-1.04773e-19
0.875 	-0.96875 	0.5 	39.9499 	0.0215931 	-2.23376e-19
0.890625 	-0.96875 	0.5 	39.9471 	0.0217299 	-5.50044e-21
0.90625 	-0.96875 	0.5 	39.9444 	0.0219266 	2.30423e-19
0.921875 	-0.96875 	0.5 	39.9417 	0.0220305 	2.40181e-19
0.9375 	-0.96875 	0.5 	39.9393 	0.0219894 	-7.22611e-20
0.953125 	-0.96875 	0.5 	39.9364 	0.0219881 	-7.93964e-19
0.96875 	-0.96875 	0.5 	39.9339 	0.0217821 	-3.70289e-19
0.984375 	-0.96875 	0.5 	39.9314 	0.0215953 	3.96122e-19
1 	-0.96875 	0.5 	39.9288 	0.0203254 	1.23849e-19
1.01562 	-0.96875 	0.5 	39.9265 	0.0194105 	-6.09931e-20
1.03125 	-0.96875 	0.5 	39.9243 	0.0181818 	4.03329e-19
1.04688 	-0.96875 	0.5 	39.9223 	0.0172386 	6.10689e-19
1.0625 	-0.96875 	0.5 	39.9206 	0.0174633 	-1.30549e-19
1.07812 	-0.96875 	0.5 	39.918 	0.0163223 	-1.43511e-19
1.09375 	-0.96875 	0.5 	39.9159 	0.0147761 	-1.10743e-19
1.10938 	-0.96875 	0.5 	39.9142 	0.0133738 	6.78909e-21
1.125 	-0.96875 	0.5 	39.9124 	0.0119692 	1.27973e-19
1.14062 	-0.96875 	0.5 	39.9106 	0.0105243 	9.37818e-20
1.15625 	-0.96875 	0.5 	39.909 	0.00885652 	5.28125e-20
1.17188 	-0.96875 	0.5 	39.9075 	0.0071672 	-1.59491e-20
1.1875 	-0.96875 	0.5 	39.9062 	0.00517656 	-7.94654e-21
1.20312 	-0.96875 	0.5 	39.9047 	0.00320694 	4.35665e-20
1.21875 	-0.96875 	0.5 	39.9035 	0.000801107 	2.68904e-20
1.23438 	-0.96875 	0.5 	39.9024 	-0.00170031 	-5.59588e-20
1.25 	-0.96875 	0.5 	39.9017 	-0.00244893 	4.98991e-20
1.26562 	-0.96875 	0.5 	39.9007 	-0.00419873 	2.40217e-19
1.28125 	-0.96875 	0.5 	39.8999 	-0.00617694 	6.47053e-20
1.29688 	-0.96875 	0.5 	39.8992 	-0.00842112 	1.16004e-19
1.3125 	-0.96875 	0.5 	39.8985 	-0.0093819 	3.58664e-20
1.32812 	-0.96875 	0.5 	39.8979 	-0.0110336 	3.48699e-20
1.34375 	-0.96875 	0.5 	39.8975 	-0.0134227 	1.1834e-19
1.35938 	-0.96875 	0.5 	39.8971 	-0.0160692 	3.24696e-19
1.375 	-0.96875 	0.5 	39.897 	-0.0178242 	2.36248e-19
1.39062 	-0.96875 	0.5 	39.8968 	-0.0195458 	1.11011e-19
1.40625 	-0.96875 	0.5 	39.8965 	-0.0214928 	5.71516e-20
1.42188 	-0.96875 	0.5 	39.8961 	-0.0231772 	1.83243e-19
1.4375 	-0.96875 	0.5 	39.8962 	-0.0249203 	7.1188e-20
1.45312 	-0.96875 	0.5 	39.8964 	-0.0266586 	-3.5342e-21
1.46875 	-0.96875 	0.5 	39.8966 	-0.028398 	-1.09067e-19
1.48438 	-0.96875 	0.5 	39.8968 	-0.0301711 	-3.07284e-19
-0.5 	-0.953125 	0.5 	39.8232 	-0.0302351 	2.06128e-19
-0.484375 	-0.953125 	0.5 	39.8237 	-0.0332391 	8.40591e-20
-0.46875 	-0.953125 	0.5 	39.8247 	-0.0370214 	2.58226e-20
-0.453125 	-0.953125 	0.5 	39.8254 	-0.0405551 	-4.59377e-20
-0.4375 	-0.953125 	0.5 	39.8259 	-0.0439272 	-1.26487e-19
-0.421875 	-0.953125 	0.5 	39.8269 	-0.0473627 	-3.11831e-19
-0.40625 	-0.953125 	0.5 	39.8281 	-0.0507749 	-3.65325e-19
-0.390625 	-0.953125 	0.5 	39.8297 	-0.0540776 	-1.26081e-19
-0.375 	-0.953125 	0.5 	39.8312 	-0.0575794 	-8.03605e-20
-0.359375 	-0.953125 	0.5 	39.833 	-0.0609509 	8.4028e-20
-0.34375 	-0.953125 	0.5 	39.8349 	-0.0642724 	1.70447e-19
-0.328125 	-0.953125 	0.5 	39.837 	-0.0675403 	5.98389e-20
-0.3125 	-0.953125 	0.5 	39.8393 	-0.0709308 	-1.46505e-19
-0.296875 	-0.953125 	0.5 	39.8412 	-0.0739014 	3.91292e-19
-0.28125 	-0.953125 	0.5 	39.8438 	-0.0768749 	2.83671e-19
-0.265625 	-0.953125 	0.5 	39.8463 	-0.0797853 	1.91719e-19
-0.25 	-0.953125 	0.5 	39.849 	-0.0825825 	1.10402e-19
-0.234375 	-0.953125 	0.5 	39.8517 	-0.0854604 	-1.7827e-19
-0.21875 	-0.953125 	0.5 	39.8554 	-0.0883748 	4.10953e-20
-0.203125 	-0.953125 	0.5 	39.8587 	-0.0912915 	-2.63693e-20
-0.1875 	-0.953125 	0.5 	39.8615 	-0.093736 	-2.72761e-19
-0.171875 	-0.953125 	0.5 	39.8656 	-0.0959157 	-2.2135e-19
-0.15625 	-0.953125 	0.5 	39.8691 	-0.0983205 	-3.07601e-19
-0.140625 	-0.953125 	0.5 	39.8727 	-0.100229 	-5.90768e-20
-0.125 	-0.953125 	0.5 	39.8766 	-0.102131 	2.20608e-20
-0.109375 	-0.953125 	0.5 	39.8805 	-0.104031 	9.01669e-20
-0.09375 	-0.953125 	0.5 	39.8843 	-0.105764 	6.10623e-20
-0.078125 	-0.953125 	0.5 	39.8887 	-0.106814 	1.77079e-20
-0.0625 	-0.953125 	0.5 	39.8932 	-0.108263 	1.17076e-19
-0.046875 	-0.953125 	0.5 	39.8973 	-0.109447 	2.32882e-19
-0.03125 	-0.953125 	0.5 	39.9015 	-0.110797 	-4.54331e-19
-0.015625 	-0.953125 	0.5 	39.9054 	-0.111442 	-3.96686e-20
0 	-0.953125 	0.5 	39.9098 	-0.111421 	-5.81494e-20
0.015625 	-0.953125 	0.5 	39.9138 	-0.111618 	-5.42346e-20
0.03125 	-0.953125 	0.5 	39.9185 	-0.111515 	-2.05891e-20
0.046875 	-0.953125 	0.5 	39.9233 	-0.111763 	-1.41112e-19
0.0625 	-0.953125 	0.5 	39.9277 	-0.110953 	-1.15777e-20
0.078125 	-0.953125 	0.5 	39.9319 	-0.110402 	6.47387e-21
0.09375 	-0.953125 	0.5 	39.9362 	-0.109618 	3.27982e-20
0.109375 	-0.953125 	0.5 	39.9405 	-0.108562 	2.40849e-20
0.125 	-0.953125 	0.5 	39.9453 	-0.107029 	6.36731e-20
0.140625 	-0.953125 	0.5 	39.9483 	-0.104369 	1.07367e-18
0.15625 	-0.953125 	0.5 	39.9527 	-0.10292 	4.461e-19
0.171875 	-0.953125 	0.5 	39.9569 	-0.101038 	1.37654e-20
0.1875 	-0.953125 	0.5 	39.9605 	-0.0986853 	-4.20035e-19
0.203125 	-0.953125 	0.5 	39.9641 	-0.0967048 	-1.81945e-19
0.21875 	-0.953125 	0.5 	39.9674 	-0.0945737 	-4.45984e-20
0.234375 	-0.953125 	0.5 	39.9712 	-0.0923026 	1.21444e-20
0.25 	-0.953125 	0.5 	39.9743 	-0.0893123 	-2.34189e-20
0.265625 	-0.953125 	0.5 	39.9772 	-0.0860586 	-2.6181e-21
0.28125 	-0.953125 	0.5 	39.9799 	-0.0826827 	2.54337e-20
0.296875 	-0.953125 	0.5 	39.9827 	-0.0797048 	6.01882e-20
0.3125 	-0.953125 	0.5 	39.9851 	-0.0758721 	7.91208e-20
0.328125 	-0.953125 	0.5 	39.9872 	-0.0722131 	6.22173e-20
0.34375 	-0.953125 	0.5 	39.989 	-0.0686369 	-3.37392e-19
0.359375 	-0.953125 	0.5 	39.9908 	-0.0654758 	-2.75242e-20
0.375 	-0.953125 	0.5 	39.9928 	-0.0618641 	1.17954e-19
0.390625 	-0.953125 	0.5 	39.9942 	-0.0582333 	6.88757e-20
0.40625 	-0.953125 	0.5 	39.9952 	-0.0544624 	2.46474e-19
0.421875 	-0.953125 	0.5 	39.9966 	-0.0501 	2.06669e-19
0.4375 	-0.953125 	0.5 	39.9966 	-0.0464702 	2.41991e-19
0.453125 	-0.953125 	0.5 	39.9965 	-0.0427251 	1.61179e-19
0.46875 	-0.953125 	0.5 	39.9972 	-0.0386691 	-9.10178e-20
0.484375 	-0.953125 	0.5 	39.9978 	-0.0346536 	-1.107e-19
0.5 	-0.953125 	0.5 	39.9975 	-0.0313037 	2.30261e-19
0.515625 	-0.953125 	0.5 	39.9971 	-0.0272158 	-2.80103e-19
0.53125 	-0.953125 	0.5 	39.9969 	-0.0234753 	-1.5457e-19
0.546875 	-0.953125 	0.5 	39.9964 	-0.0200824 	-1.43626e-19
0.5625 	-0.953125 	0.5 	39.9952 	-0.0169672 	2.91789e-19
0.578125 	-0.953125 	0.5 	39.9938 	-0.0134718 	-2.41006e-21
0.59375 	-0.953125 	0.5 	39.9926 	-0.0102796 	-7.67445e-20
0.609375 	-0.953125 	0.5 	39.9903 	-0.00700216 	-2.47461e-19
0.625 	-0.953125 	0.5 	39.9895 	-0.00357298 	1.467e-19
0.640625 	-0.953125 	0.5 	39.9877 	-0.00128697 	2.03976e-19
0.65625 	-0.953125 	0.5 	39.986 	0.00154019 	-5.2317e-20
0.671875 	-0.953125 	0.5 	39.984 	0.00397252 	2.00561e-19
0.6875 	-0.953125 	0.5 	39.9818 	0.00694355 	1.36736e-19
0.703125 	-0.953125 	0.5 	39.9792 	0.00938498 	1.48873e-19
0.71875 	-0.953125 	0.5 	39.9769 	0.0112352 	2.09658e-20
0.734375 	-0.953125 	0.5 	39.9746 	0.0132094 	-8.07491e-20
0.75 	-0.953125 	0.5 	39.9722 	0.0151117 	6.55655e-22
0.765625 	-0.953125 	0.5 	39.9694 	0.0171279 	-9.00945e-21
0.78125 	-0.953125 	0.5 	39.967 	0.0187191 	-3.77053e-19
0.796875 	-0.953125 	0.5 	39.9643 	0.0197321 	2.38391e-19
0.8125 	-0.953125 	0.5 	39.9615 	0.0216288 	1.29833e-19
0.828125 	-0.953125 	0.5 	39.9585 	0.0219008 	-1.08903e-19
0.84375 	-0.953125 	0.5 	39.9557 	0.0227392 	1.85464e-20
0.859375 	-0.953125 	0.5 	39.9531 	0.0237744 	-2.76493e-20
0.875 	-0.953125 	0.5 	39.95 	0.0245515 	-1.14464e-19
0.890625 	-0.953125 	0.5 	39.9473 	0.0245975 	-5.21412e-19
0.90625 	-0.953125 	0.5 	39.9444 	0.0246966 	-2.11767e-19
0.921875 	-0.953125 	0.5 	39.9414 	0.0247881 	6.32871e-20
0.9375 	-0.953125 	0.5 	39.9386 	0.0244975 	-3.56862e-20
0.953125 	-0.953125 	0.5 	39.9358 	0.0244183 	-3.51602e-19
0.96875 	-0.953125 	0.5 	39.9331 	0.024319 	-5.25085e-19
0.984375 	-0.953125 	0.5 	39.9306 	0.023755 	-6.81089e-20
1 	-0.953125 	0.5 	39.9286 	0.0230809 	-5.43839e-19
1.01562 	-0.953125 	0.5 	39.9264 	0.0223372 	-6.30779e-19
1.03125 	-0.953125 	0.5 	39.9238 	0.0212499 	-1.55519e-19
1.04688 	-0.953125 	0.5 	39.9218 	0.0205383 	-1.33879e-19
1.0625 	-0.953125 	0.5 	39.9185 	0.01934 	-4.1268e-19
1.07812 	-0.953125 	0.5 	39.9166 	0.0181025 	-8.32732e-20
1.09375 	-0.953125 	0.5 	39.9143 	0.0162306 	-2.43742e-20
1.10938 	-0.953125 	0.5 	39.9123 	0.0149933 	-1.63861e-20
1.125 	-0.953125 	0.5 	39.9106 	0.0136113 	7.59132e-20
1.14062 	-0.953125 	0.5 	39.909 	0.0119772 	1.03762e-20
1.15625 	-0.953125 	0.5 	39.9073 	0.0103015 	-2.57956e-20
1.17188 	-0.953125 	0.5 	39.9055 	0.00859992 	-5.47467e-20
1.1875 	-0.953125 	0.5 	39.9041 	0.0066827 	-4.74537e-20
1.20312 	-0.953125 	0.5 	39.9026 	0.00474683 	3.61921e-21
1.21875 	-0.953125 	0.5 	39.9013 	0.00262651 	7.09825e-20
1.23438 	-0.953125 	0.5 	39.9003 	0.000650527 	5.46787e-20
1.25 	-0.953125 	0.5 	39.8993 	-0.00120866 	2.54224e-19
1.26562 	-0.953125 	0.5 	39.8983 	-0.00328774 	3.02934e-19
1.28125 	-0.953125 	0.5 	39.8976 	-0.00524567 	8.51045e-20
1.29688 	-0.953125 	0.5 	39.8969 	-0.00753461 	7.26201e-20
1.3125 	-0.953125 	0.5 	39.8961 	-0.00977186 	1.45314e-19
1.32812 	-0.953125 	0.5 	39.8955 	-0.0110438 	1.00819e-19
1.34375 	-0.953125 	0.5 	39.895 	-0.0134967 	2.14751e-19
1.35938 	-0.953125 	0.5 	39.8947 	-0.0162691 	4.81175e-19
1.375 	-0.953125 	0.5 	39.8945 	-0.0183619 	5.10568e-19
1.39062 	-0.953125 	0.5 	39.8944 	-0.0200723 	4.06539e-19
1.40625 	-0.953125 	0.5 	39.8943 	-0.0215794 	2.31644e-19
1.42188 	-0.953125 	0.5 	39.8941 	-0.0232472 	1.38929e-19
1.4375 	-0.953125 	0.5 	39.8943 	-0.0250373 	-1.06075e-19
1.45312 	-0.953125 	0.5 	39.8944 	-0.0268484 	-4.08794e-19
1.46875 	-0.953125 	0.5 	39.8944 	-0.0286594 	-7.11513e-19
1.48438 	-0.953125 	0.5 	39.8946 	-0.0305553 	-6.7227e-19
-0.5 	-0.9375 	0.5 	39.8192 	-0.0305035 	-1.2009e-19
-0.484375 	-0.9375 	0.5 	39.8199 	-0.0340702 	1.21118e-19
-0.46875 	-0.9375 	0.5 	39.8201 	-0.0380589 	-2.62249e-19
-0.453125 	-0.9375 	0.5 	39.8208 	-0.0415896 	-3.32608e-19
-0.4375 	-0.9375 	0.5 	39.822 	-0.0448714 	-1.67986e-19
-0.421875 	-0.9375 	0.5 	39.8231 	-0.0483563 	-1.0616e-19
-0.40625 	-0.9375 	0.5 	39.8242 	-0.0516596 	2.31235e-19
-0.390625 	-0.9375 	0.5 	39.8257 	-0.0552138 	1.5727e-19
-0.375 	-0.9375 	0.5 	39.8277 	-0.0584938 	-3.01563e-19
-0.359375 	-0.9375 	0.5 	39.8294 	-0.0626726 	9.81744e-20
-0.34375 	-0.9375 	0.5 	39.8313 	-0.0659879 	1.61868e-19
-0.328125 	-0.9375 	0.5 	39.8334 	-0.0689225 	1.41903e-20
-0.3125 	-0.9375 	0.5 	39.8359 	-0.0730392 	-1.59058e-19
-0.296875 	-0.9375 	0.5 	39.8379 	-0.0769818 	-7.76635e-20
-0.28125 	-0.9375 	0.5 	39.8399 	-0.0795157 	4.19332e-19
-0.265625 	-0.9375 	0.5 	39.8425 	-0.0827429 	1.22772e-19
-0.25 	-0.9375 	0.5 	39.8456 	-0.0858951 	1.04544e-19
-0.234375 	-0.9375 	0.5 	39.8484 	-0.088834 	-1.72333e-19
-0.21875 	-0.9375 	0.5 	39.8519 	-0.0909904 	2.49876e-19
-0.203125 	-0.9375 	0.5 	39.8554 	-0.0942317 	1.38973e-19
-0.1875 	-0.9375 	0.5 	39.8585 	-0.0972058 	-1.49361e-19
-0.171875 	-0.9375 	0.5 	39.8625 	-0.0993876 	-7.48746e-20