-0.5 	-1 	0.5 	38.8196 	0.75331 	5.49692e-20
-0.484375 	-1 	0.5 	38.8075 	0.747406 	-1.83488e-20
-0.46875 	-1 	0.5 	38.7951 	0.741194 	-2.25417e-20
-0.453125 	-1 	0.5 	38.7826 	0.734516 	-5.08821e-20
-0.4375 	-1 	0.5 	38.7722 	0.729444 	2.19046e-20
-0.421875 	-1 	0.5 	38.7615 	0.72016 	7.67575e-20
-0.40625 	-1 	0.5 	38.749 	0.712488 	-1.25871e-20
-0.390625 	-1 	0.5 	38.739 	0.705529 	-3.7958e-21
-0.375 	-1 	0.5 	38.7282 	0.696891 	-1.69747e-21
-0.359375 	-1 	0.5 	38.716 	0.689281 	5.81757e-21
-0.34375 	-1 	0.5 	38.7039 	0.682693 	7.38489e-21
-0.328125 	-1 	0.5 	38.6921 	0.671858 	2.84428e-20
-0.3125 	-1 	0.5 	38.683 	0.662957 	9.74039e-20
-0.296875 	-1 	0.5 	38.672 	0.653175 	6.48944e-21
-0.28125 	-1 	0.5 	38.6617 	0.644597 	-3.42775e-20
-0.265625 	-1 	0.5 	38.6499 	0.636005 	-1.49126e-20
-0.25 	-1 	0.5 	38.6384 	0.62746 	-1.55533e-20
-0.234375 	-1 	0.5 	38.6271 	0.616865 	5.25717e-21
-0.21875 	-1 	0.5 	38.6197 	0.605565 	1.41651e-20
-0.203125 	-1 	0.5 	38.6133 	0.594514 	1.30792e-20
-0.1875 	-1 	0.5 	38.6048 	0.58345 	2.47527e-21
-0.171875 	-1 	0.5 	38.5921 	0.573673 	1.56646e-21
-0.15625 	-1 	0.5 	38.58 	0.56323 	3.36239e-21
-0.140625 	-1 	0.5 	38.5723 	0.546977 	1.91899e-21
-0.125 	-1 	0.5 	38.5636 	0.538611 	-5.79365e-21
-0.109375 	-1 	0.5 	38.5555 	0.525924 	-4.06859e-21
-0.09375 	-1 	0.5 	38.545 	0.513998 	4.71196e-21
-0.078125 	-1 	0.5 	38.5356 	0.502052 	2.57217e-21
-0.0625 	-1 	0.5 	38.5257 	0.491815 	7.0725e-22
-0.046875 	-1 	0.5 	38.5146 	0.481322 	-1.64363e-21
-0.03125 	-1 	0.5 	38.5086 	0.469719 	-7.72419e-22
-0.015625 	-1 	0.5 	38.5035 	0.458337 	-3.377e-22
0 	-1 	0.5 	38.4951 	0.444956 	-4.02981e-22
0.015625 	-1 	0.5 	38.4879 	0.431725 	-2.9375e-22
0.03125 	-1 	0.5 	38.4803 	0.418369 	9.56068e-21
0.046875 	-1 	0.5 	38.4728 	0.404263 	2.06236e-20
0.0625 	-1 	0.5 	38.4651 	0.391649 	-2.8968e-22
0.078125 	-1 	0.5 	38.4574 	0.379711 	-4.52881e-21
0.09375 	-1 	0.5 	38.4511 	0.363178 	4.33984e-20
0.109375 	-1 	0.5 	38.4447 	0.349054 	3.0249e-20
0.125 	-1 	0.5 	38.4382 	0.33637 	1.58493e-21
0.140625 	-1 	0.5 	38.4327 	0.32249 	-2.09232e-20
0.15625 	-1 	0.5 	38.4272 	0.308624 	-3.85636e-20
0.171875 	-1 	0.5 	38.421 	0.29562 	8.2347e-21
0.1875 	-1 	0.5 	38.4152 	0.280102 	2.54657e-22
0.203125 	-1 	0.5 	38.4092 	0.264714 	-1.24568e-20
0.21875 	-1 	0.5 	38.4043 	0.249266 	-2.82012e-20
0.234375 	-1 	0.5 	38.3999 	0.234511 	-4.88156e-20
0.25 	-1 	0.5 	38.3956 	0.218881 	-1.69034e-20
0.265625 	-1 	0.5 	38.3902 	0.205405 	3.18904e-21
0.28125 	-1 	0.5 	38.388 	0.192397 	9.42209e-20
0.296875 	-1 	0.5 	38.3814 	0.172701 	3.41578e-20
0.3125 	-1 	0.5 	38.3807 	0.157342 	4.97472e-20
0.328125 	-1 	0.5 	38.3761 	0.142106 	-5.23796e-20
0.34375 	-1 	0.5 	38.3711 	0.125948 	-6.21169e-21
0.359375 	-1 	0.5 	38.3671 	0.110396 	-7.09004e-21
0.375 	-1 	0.5 	38.3652 	0.0960395 	-1.8425e-20
0.390625 	-1 	0.5 	38.3651 	0.0787716 	-6.00642e-21
0.40625 	-1 	0.5 	38.3642 	0.0621469 	-2.30164e-22
0.421875 	-1 	0.5 	38.3605 	0.044995 	7.25411e-22
0.4375 	-1 	0.5 	38.3623 	0.0292763 	1.82841e-20
0.453125 	-1 	0.5 	38.3601 	0.0136325 	4.59949e-20
0.46875 	-1 	0.5 	38.3557 	-0.00385015 	2.74763e-20
0.484375 	-1 	0.5 	38.3537 	-0.0215946 	-1.22307e-20
0.5 	-1 	0.5 	38.3555 	-0.0378128 	-2.29071e-20
0.515625 	-1 	0.5 	38.3558 	-0.0549381 	1.1172e-20
0.53125 	-1 	0.5 	38.3556 	-0.0725776 	1.32982e-20
0.546875 	-1 	0.5 	38.3558 	-0.0888464 	1.80741e-20
0.5625 	-1 	0.5 	38.3591 	-0.108661 	1.05469e-20
0.578125 	-1 	0.5 	38.3605 	-0.122239 	-4.23384e-21
0.59375 	-1 	0.5 	38.362 	-0.139531 	3.19153e-21
0.609375 	-1 	0.5 	38.3626 	-0.157467 	2.72256e-20
0.625 	-1 	0.5 	38.3641 	-0.176192 	-7.83378e-20
0.640625 	-1 	0.5 	38.366 	-0.192065 	-8.019e-20
0.65625 	-1 	0.5 	38.3697 	-0.207511 	1.58768e-20
0.671875 	-1 	0.5 	38.3748 	-0.224448 	6.27552e-21
0.6875 	-1 	0.5 	38.3807 	-0.242741 	5.93797e-21
0.703125 	-1 	0.5 	38.3867 	-0.261002 	5.25164e-21
0.71875 	-1 	0.5 	38.3898 	-0.278827 	-1.67285e-20
0.734375 	-1 	0.5 	38.3923 	-0.296429 	-3.95693e-20
0.75 	-1 	0.5 	38.3945 	-0.313983 	1.43748e-21
0.765625 	-1 	0.5 	38.4002 	-0.330462 	-3.47993e-21
0.78125 	-1 	0.5 	38.4075 	-0.347383 	-6.96256e-21
0.796875 	-1 	0.5 	38.4153 	-0.363608 	-4.06306e-20
0.8125 	-1 	0.5 	38.4234 	-0.379681 	-8.11543e-20
0.828125 	-1 	0.5 	38.4305 	-0.395831 	-1.56115e-20
0.84375 	-1 	0.5 	38.438 	-0.409429 	7.08171e-21
0.859375 	-1 	0.5 	38.4475 	-0.4272 	8.49256e-21
0.875 	-1 	0.5 	38.456 	-0.442954 	5.68677e-21
0.890625 	-1 	0.5 	38.4619 	-0.457761 	-6.77411e-20
0.90625 	-1 	0.5 	38.4692 	-0.47194 	-3.84379e-20
0.921875 	-1 	0.5 	38.4801 	-0.485437 	1.32191e-19
0.9375 	-1 	0.5 	38.4894 	-0.503971 	4.38522e-20
0.953125 	-1 	0.5 	38.4993 	-0.518061 	-2.72597e-20
0.96875 	-1 	0.5 	38.5087 	-0.53401 	6.98643e-21
0.984375 	-1 	0.5 	38.5183 	-0.549475 	5.65797e-21
1 	-1 	0.5 	38.5296 	-0.5629 	-3.78561e-21
1.01562 	-1 	0.5 	38.5414 	-0.577475 	-2.73568e-21
1.03125 	-1 	0.5 	38.5529 	-0.590535 	2.64688e-24
1.04688 	-1 	0.5 	38.564 	-0.605122 	-4.46496e-25
1.0625 	-1 	0.5 	38.5755 	-0.619043 	-6.73735e-23
1.07812 	-1 	0.5 	38.587 	-0.630799 	-4.4527e-22
1.09375 	-1 	0.5 	38.5983 	-0.642664 	-9.79479e-22
1.10938 	-1 	0.5 	38.6122 	-0.654452 	2.15946e-22
1.125 	-1 	0.5 	38.6256 	-0.664596 	-1.22099e-21
1.14062 	-1 	0.5 	38.6387 	-0.679234 	1.18646e-20
1.15625 	-1 	0.5 	38.6531 	-0.687956 	7.24264e-21
1.17188 	-1 	0.5 	38.6663 	-0.69951 	1.07493e-20
1.1875 	-1 	0.5 	38.6791 	-0.70779 	3.09623e-20
1.20312 	-1 	0.5 	38.6919 	-0.716609 	-1.69135e-20
1.21875 	-1 	0.5 	38.7046 	-0.725252 	-6.63538e-20
1.23438 	-1 	0.5 	38.7175 	-0.739116 	-1.54194e-21
1.25 	-1 	0.5 	38.7306 	-0.746581 	9.53937e-20
1.26562 	-1 	0.5 	38.744 	-0.757828 	1.52998e-20
1.28125 	-1 	0.5 	38.7585 	-0.767571 	-1.92764e-20
1.29688 	-1 	0.5 	38.7727 	-0.776282 	-7.96766e-21
1.3125 	-1 	0.5 	38.7881 	-0.782876 	-3.8683e-20
1.32812 	-1 	0.5 	38.8043 	-0.788238 	-2.28892e-20
1.34375 	-1 	0.5 	38.8191 	-0.794807 	-3.65962e-20
1.35938 	-1 	0.5 	38.8332 	-0.800709 	-1.72926e-20
1.375 	-1 	0.5 	38.8466 	-0.806519 	9.45661e-21
1.39062 	-1 	0.5 	38.8602 	-0.812969 	2.57872e-20
1.40625 	-1 	0.5 	38.8746 	-0.821419 	9.56856e-21
1.42188 	-1 	0.5 	38.8889 	-0.826514 	-1.44183e-19
1.4375 	-1 	0.5 	38.9027 	-0.831534 	-8.72431e-20
1.45312 	-1 	0.5 	38.9163 	-0.8368 	4.53026e-20
1.46875 	-1 	0.5 	38.9305 	-0.841582 	1.27608e-19
1.48438 	-1 	0.5 	38.9459 	-0.845767 	8.07981e-20
-0.5 	-0.984375 	0.5 	38.8103 	0.766421 	1.67575e-20
-0.484375 	-0.984375 	0.5 	38.798 	0.758928 	-5.23033e-20
-0.46875 	-0.984375 	0.5 	38.7858 	0.75366 	-1.35599e-20
-0.453125 	-0.984375 	0.5 	38.7735 	0.747811 	-1.8361e-21
-0.4375 	-0.984375 	0.5 	38.7626 	0.740559 	4.25444e-20
-0.421875 	-0.984375 	0.5 	38.7511 	0.73204 	2.90285e-20
-0.40625 	-0.984375 	0.5 	38.7395 	0.72352 	1.55126e-20
-0.390625 	-0.984375 	0.5 	38.7283 	0.715477 	-6.01976e-21
-0.375 	-0.984375 	0.5 	38.7167 	0.707628 	3.11619e-22
-0.359375 	-0.984375 	0.5 	38.7049 	0.69988 	7.14536e-21
-0.34375 	-0.984375 	0.5 	38.6926 	0.69231 	1.48587e-20
-0.328125 	-0.984375 	0.5 	38.6813 	0.683824 	4.87305e-20
-0.3125 	-0.984375 	0.5 	38.6711 	0.674433 	2.87629e-20
-0.296875 	-0.984375 	0.5 	38.6609 	0.665003 	1.81053e-21
-0.28125 	-0.984375 	0.5 	38.6507 	0.655285 	-8.58444e-21
-0.265625 	-0.984375 	0.5 	38.6385 	0.646967 	-2.11056e-20
-0.25 	-0.984375 	0.5 	38.6251 	0.639755 	-4.69749e-20
-0.234375 	-0.984375 	0.5 	38.6147 	0.627912 	-7.77077e-21
-0.21875 	-0.984375 	0.5 	38.6048 	0.615917 	2.71498e-20
-0.203125 	-0.984375 	0.5 	38.5993 	0.605414 	-1.89884e-22
-0.1875 	-0.984375 	0.5 	38.5895 	0.591417 	-1.35938e-21
-0.171875 	-0.984375 	0.5 	38.5768 	0.581652 	-1.79656e-21
-0.15625 	-0.984375 	0.5 	38.5663 	0.570098 	9.15358e-22
-0.140625 	-0.984375 	0.5 	38.5553 	0.55726 	-8.13047e-22
-0.125 	-0.984375 	0.5 	38.5474 	0.545753 	-3.77988e-21
-0.109375 	-0.984375 	0.5 	38.5388 	0.533779 	2.49976e-21
-0.09375 	-0.984375 	0.5 	38.5303 	0.522368 	3.65026e-21
-0.078125 	-0.984375 	0.5 	38.5205 	0.510823 	1.40547e-21
-0.0625 	-0.984375 	0.5 	38.5107 	0.500698 	-6.87614e-22
-0.046875 	-0.984375 	0.5 	38.4993 	0.490017 	-3.03347e-21
-0.03125 	-0.984375 	0.5 	38.4982 	0.478851 	-4.35866e-23
-0.015625 	-0.984375 	0.5 	38.4852 	0.46451 	-9.85809e-22
0 	-0.984375 	0.5 	38.4804 	0.452768 	-4.55734e-22
0.015625 	-0.984375 	0.5 	38.4719 	0.437698 	-1.77311e-20
0.03125 	-0.984375 	0.5 	38.4629 	0.424722 	2.99802e-20
0.046875 	-0.984375 	0.5 	38.4566 	0.410421 	2.33808e-20
0.0625 	-0.984375 	0.5 	38.4496 	0.397497 	4.29773e-20
0.078125 	-0.984375 	0.5 	38.4424 	0.386648 	1.96683e-21
0.09375 	-0.984375 	0.5 	38.4355 	0.372568 	9.88899e-21
0.109375 	-0.984375 	0.5 	38.4277 	0.357948 	-1.4074e-20
0.125 	-0.984375 	0.5 	38.422 	0.34291 	1.04553e-20
0.140625 	-0.984375 	0.5 	38.4163 	0.328222 	2.42543e-21
0.15625 	-0.984375 	0.5 	38.4101 	0.31398 	-1.35777e-21
0.171875 	-0.984375 	0.5 	38.4043 	0.300271 	-5.76672e-21
0.1875 	-0.984375 	0.5 	38.397 	0.284851 	-1.10949e-20
0.203125 	-0.984375 	0.5 	38.3911 	0.269538 	-2.39956e-20
0.21875 	-0.984375 	0.5 	38.3867 	0.254082 	-3.58298e-20
0.234375 	-0.984375 	0.5 	38.3828 	0.239197 	-1.80495e-20
0.25 	-0.984375 	0.5 	38.3789 	0.224144 	-1.38299e-20
0.265625 	-0.984375 	0.5 	38.3747 	0.208918 	1.43081e-20
0.28125 	-0.984375 	0.5 	38.3699 	0.192396 	2.35774e-20
0.296875 	-0.984375 	0.5 	38.3652 	0.175874 	3.28466e-20
0.3125 	-0.984375 	0.5 	38.3603 	0.158936 	-1.87502e-20
0.328125 	-0.984375 	0.5 	38.3552 	0.141846 	-9.23231e-20
0.34375 	-0.984375 	0.5 	38.3506 	0.126076 	-1.84145e-20
0.359375 	-0.984375 	0.5 	38.3497 	0.112487 	-1.0708e-20
0.375 	-0.984375 	0.5 	38.3472 	0.0976666 	-2.04043e-20
0.390625 	-0.984375 	0.5 	38.3477 	0.078936 	-1.12859e-21
0.40625 	-0.984375 	0.5 	38.3447 	0.0620379 	4.88636e-21
0.421875 	-0.984375 	0.5 	38.3434 	0.0456595 	1.85684e-20
0.4375 	-0.984375 	0.5 	38.341 	0.0292886 	4.35182e-20
0.453125 	-0.984375 	0.5 	38.34 	0.0132535 	2.62244e-20
0.46875 	-0.984375 	0.5 	38.3362 	-0.00444541 	-4.13939e-21
0.484375 	-0.984375 	0.5 	38.3371 	-0.021968 	-5.13347e-20
0.5 	-0.984375 	0.5 	38.3368 	-0.0380834 	-9.79719e-21
0.515625 	-0.984375 	0.5 	38.3372 	-0.0548402 	2.25409e-20
0.53125 	-0.984375 	0.5 	38.3373 	-0.072147 	3.23367e-20
0.546875 	-0.984375 	0.5 	38.3369 	-0.0901971 	3.82277e-20
0.5625 	-0.984375 	0.5 	38.3383 	-0.107945 	-8.609e-20
0.578125 	-0.984375 	0.5 	38.3406 	-0.124954 	-8.48468e-20
0.59375 	-0.984375 	0.5 	38.3433 	-0.14279 	-2.17823e-21
0.609375 	-0.984375 	0.5 	38.3463 	-0.160995 	1.47183e-20
0.625 	-0.984375 	0.5 	38.3471 	-0.178951 	-7.9794e-20
0.640625 	-0.984375 	0.5 	38.3503 	-0.194236 	-2.67792e-21
0.65625 	-0.984375 	0.5 	38.3506 	-0.210895 	6.34673e-20
0.671875 	-0.984375 	0.5 	38.3549 	-0.227867 	1.68136e-20
0.6875 	-0.984375 	0.5 	38.3632 	-0.244059 	9.8463e-22
0.703125 	-0.984375 	0.5 	38.3666 	-0.264765 	1.80302e-20
0.71875 	-0.984375 	0.5 	38.3718 	-0.284538 	4.11746e-20
0.734375 	-0.984375 	0.5 	38.3753 	-0.301384 	-3.41148e-20
0.75 	-0.984375 	0.5 	38.3776 	-0.319162 	8.43862e-21
0.765625 	-0.984375 	0.5 	38.3829 	-0.335547 	3.21591e-21
0.78125 	-0.984375 	0.5 	38.3898 	-0.350763 	-2.23734e-20
0.796875 	-0.984375 	0.5 	38.398 	-0.370536 	4.2879e-20
0.8125 	-0.984375 	0.5 	38.4062 	-0.386847 	5.52104e-20
0.828125 	-0.984375 	0.5 	38.4128 	-0.403341 	1.94033e-20
0.84375 	-0.984375 	0.5 	38.4207 	-0.420438 	3.09335e-20
0.859375 	-0.984375 	0.5 	38.4282 	-0.441363 	4.63997e-20
0.875 	-0.984375 	0.5 	38.437 	-0.455613 	3.86166e-20
0.890625 	-0.984375 	0.5 	38.4456 	-0.465095 	-9.92195e-21
0.90625 	-0.984375 	0.5 	38.4532 	-0.479221 	2.9808e-20
0.921875 	-0.984375 	0.5 	38.4643 	-0.494663 	1.18444e-19
0.9375 	-0.984375 	0.5 	38.4741 	-0.512526 	6.85581e-20
0.953125 	-0.984375 	0.5 	38.4837 	-0.5296 	2.00679e-20
0.96875 	-0.984375 	0.5 	38.4941 	-0.545166 	5.19983e-20
0.984375 	-0.984375 	0.5 	38.503 	-0.560535 	1.94136e-20
1 	-0.984375 	0.5 	38.5138 	-0.573701 	1.49862e-21
1.01562 	-0.984375 	0.5 	38.5256 	-0.58865 	2.30583e-21
1.03125 	-0.984375 	0.5 	38.5372 	-0.602282 	9.43314e-22
1.04688 	-0.984375 	0.5 	38.5488 	-0.616702 	-1.29551e-22
1.0625 	-0.984375 	0.5 	38.5617 	-0.6313 	-3.4326e-22
1.07812 	-0.984375 	0.5 	38.5734 	-0.644594 	-5.00209e-22
1.09375 	-0.984375 	0.5 	38.5859 	-0.656492 	-4.24418e-22
1.10938 	-0.984375 	0.5 	38.5998 	-0.668084 	1.20884e-21
1.125 	-0.984375 	0.5 	38.6135 	-0.679377 	3.33665e-21
1.14062 	-0.984375 	0.5 	38.6272 	-0.690313 	5.10518e-21
1.15625 	-0.984375 	0.5 	38.6411 	-0.700241 	3.94442e-21
1.17188 	-0.984375 	0.5 	38.655 	-0.710169 	2.78366e-21
1.1875 	-0.984375 	0.5 	38.6684 	-0.720229 	1.04102e-20
1.20312 	-0.984375 	0.5 	38.6811 	-0.729854 	-1.77999e-20
1.21875 	-0.984375 	0.5 	38.6939 	-0.740829 	-1.62167e-20
1.23438 	-0.984375 	0.5 	38.7067 	-0.751804 	-1.46335e-20
1.25 	-0.984375 	0.5 	38.7197 	-0.762652 	1.72707e-20
1.26562 	-0.984375 	0.5 	38.7343 	-0.77242 	-1.80364e-20
1.28125 	-0.984375 	0.5 	38.7489 	-0.781947 	-4.45428e-20
1.29688 	-0.984375 	0.5 	38.763 	-0.790649 	-1.25945e-20
1.3125 	-0.984375 	0.5 	38.7777 	-0.798154 	-5.45183e-20
1.32812 	-0.984375 	0.5 	38.7939 	-0.803486 	-3.7586e-20
1.34375 	-0.984375 	0.5 	38.8097 	-0.808518 	-6.21492e-21
1.35938 	-0.984375 	0.5 	38.8243 	-0.815202 	-3.08881e-20
1.375 	-0.984375 	0.5 	38.8399 	-0.821902 	-8.96759e-22
1.39062 	-0.984375 	0.5 	38.8536 	-0.828352 	1.54339e-20
1.40625 	-0.984375 	0.5 	38.8674 	-0.835355 	2.27508e-20
1.42188 	-0.984375 	0.5 	38.8815 	-0.840956 	-2.88042e-20
1.4375 	-0.984375 	0.5 	38.8953 	-0.845718 	8.77615e-20
1.45312 	-0.984375 	0.5 	38.9094 	-0.849663 	1.78421e-19
1.46875 	-0.984375 	0.5 	38.9257 	-0.857232 	1.00114e-19
1.48438 	-0.984375 	0.5 	38.9388 	-0.860615 	3.7364e-20
-0.5 	-0.96875 	0.5 	38.8009 	0.779215 	-7.85622e-21
-0.484375 	-0.96875 	0.5 	38.7886 	0.772336 	-2.31061e-20
-0.46875 	-0.96875 	0.5 	38.7764 	0.76682 	7.344e-21
-0.453125 	-0.96875 	0.5 	38.7642 	0.760017 	3.58874e-20
-0.4375 	-0.96875 	0.5 	38.7512 	0.75219 	6.65892e-21
-0.421875 	-0.96875 	0.5 	38.7396 	0.743604 	-2.76864e-21
-0.40625 	-0.96875 	0.5 	38.728 	0.735243 	-8.97344e-21
-0.390625 	-0.96875 	0.5 	38.7167 	0.727356 	-1.4668e-20
-0.375 	-0.96875 	0.5 	38.7056 	0.714541 	-5.55446e-20
-0.359375 	-0.96875 	0.5 	38.6938 	0.705838 	-5.70858e-20
-0.34375 	-0.96875 	0.5 	38.6808 	0.70351 	4.62588e-21
-0.328125 	-0.96875 	0.5 	38.669 	0.694812 	1.54766e-20
-0.3125 	-0.96875 	0.5 	38.6583 	0.684868 	1.04633e-20
-0.296875 	-0.96875 	0.5 	38.6483 	0.67448 	-1.23068e-22
-0.28125 	-0.96875 	0.5 	38.6373 	0.666311 	-4.2981e-21
-0.265625 	-0.96875 	0.5 	38.6273 	0.654109 	1.77134e-20
-0.25 	-0.96875 	0.5 	38.6152 	0.646392 	6.62021e-22
-0.234375 	-0.96875 	0.5 	38.6021 	0.639064 	-2.31165e-20
-0.21875 	-0.96875 	0.5 	38.5929 	0.627017 	1.01809e-20
-0.203125 	-0.96875 	0.5 	38.5822 	0.615284 	-7.81451e-21
-0.1875 	-0.96875 	0.5 	38.5729 	0.600979 	-7.51135e-21
-0.171875 	-0.96875 	0.5 	38.5623 	0.588679 	-5.2199e-21
-0.15625 	-0.96875 	0.5 	38.5494 	0.579047 	-6.59837e-21
-0.140625 	-0.96875 	0.5 	38.54 	0.567028 	-3.38491e-21
-0.125 	-0.96875 	0.5 	38.5315 	0.557158 	1.55567e-21
-0.109375 	-0.96875 	0.5 	38.5249 	0.547865 	6.57817e-21
-0.09375 	-0.96875 	0.5 	38.5134 	0.533527 	3.22345e-21
-0.078125 	-0.96875 	0.5 	38.5012 	0.524273 	2.0438e-20
-0.0625 	-0.96875 	0.5 	38.4933 	0.510834 	4.61511e-21
-0.046875 	-0.96875 	0.5 	38.4857 	0.498249 	-3.31231e-21
-0.03125 	-0.96875 	0.5 	38.4787 	0.485439 	-2.16181e-21
-0.015625 	-0.96875 	0.5 	38.4718 	0.472629 	-1.0113e-21
0 	-0.96875 	0.5 	38.4635 	0.458753 	-9.58278e-21
0.015625 	-0.96875 	0.5 	38.4557 	0.443403 	-2.73428e-20
0.03125 	-0.96875 	0.5 	38.4476 	0.430397 	2.50127e-21
0.046875 	-0.96875 	0.5 	38.4403 	0.415808 	3.95184e-20
0.0625 	-0.96875 	0.5 	38.4333 	0.40479 	1.28451e-20
0.078125 	-0.96875 	0.5 	38.4263 	0.393557 	-2.92418e-20
0.09375 	-0.96875 	0.5 	38.4196 	0.378936 	-4.57014e-21
0.109375 	-0.96875 	0.5 	38.4105 	0.363642 	-3.4303e-20
0.125 	-0.96875 	0.5 	38.4058 	0.349483 	2.02552e-20
0.140625 	-0.96875 	0.5 	38.4005 	0.335742 	2.03031e-20
0.15625 	-0.96875 	0.5 	38.3952 	0.321164 	5.90824e-21
0.171875 	-0.96875 	0.5 	38.3871 	0.30601 	-2.94649e-21
0.1875 	-0.96875 	0.5 	38.38 	0.290248 	-4.28585e-21
0.203125 	-0.96875 	0.5 	38.374 	0.274643 	-2.59211e-20
0.21875 	-0.96875 	0.5 	38.3699 	0.258417 	-4.58525e-20
0.234375 	-0.96875 	0.5 	38.3658 	0.24312 	-4.92137e-20
0.25 	-0.96875 	0.5 	38.3627 	0.228514 	5.18024e-20
0.265625 	-0.96875 	0.5 	38.3585 	0.213854 	-2.42185e-20
0.28125 	-0.96875 	0.5 	38.3552 	0.199359 	1.01532e-19
0.296875 	-0.96875 	0.5 	38.3493 	0.181625 	3.11867e-20
0.3125 	-0.96875 	0.5 	38.3445 	0.16546 	1.72365e-20
0.328125 	-0.96875 	0.5 	38.3384 	0.147059 	-1.33686e-20
0.34375 	-0.96875 	0.5 	38.3323 	0.129838 	-7.15518e-20
0.359375 	-0.96875 	0.5 	38.3306 	0.113921 	-2.73375e-20
0.375 	-0.96875 	0.5 	38.3294 	0.0992064 	-2.12997e-20
0.390625 	-0.96875 	0.5 	38.3272 	0.0813772 	6.54427e-21
0.40625 	-0.96875 	0.5 	38.3254 	0.0645216 	5.60485e-21
0.421875 	-0.96875 	0.5 	38.3232 	0.0462986 	-2.35315e-20
0.4375 	-0.96875 	0.5 	38.3213 	0.0296667 	-7.74834e-21
0.453125 	-0.96875 	0.5 	38.3194 	0.0130347 	8.03483e-21
0.46875 	-0.96875 	0.5 	38.3188 	-0.00403429 	1.20327e-20
0.484375 	-0.96875 	0.5 	38.3186 	-0.0212446 	1.0086e-20
0.5 	-0.96875 	0.5 	38.3184 	-0.038455 	8.13935e-21
0.515625 	-0.96875 	0.5 	38.3183 	-0.0556105 	3.64446e-20
0.53125 	-0.96875 	0.5 	38.3187 	-0.0728725 	9.45885e-20
0.546875 	-0.96875 	0.5 	38.3181 	-0.0910164 	5.61464e-20
0.5625 	-0.96875 	0.5 	38.3192 	-0.105949 	8.76211e-20
0.578125 	-0.96875 	0.5 	38.3213 	-0.127515 	-4.69725e-20
0.59375 	-0.96875 	0.5 	38.3248 	-0.145787 	-1.25878e-20
0.609375 	-0.96875 	0.5 	38.328 	-0.163856 	2.62015e-21
0.625 	-0.96875 	0.5 	38.3293 	-0.18243 	2.78911e-20
0.640625 	-0.96875 	0.5 	38.329 	-0.199285 	1.15162e-19
0.65625 	-0.96875 	0.5 	38.3297 	-0.216443 	1.11668e-20
0.671875 	-0.96875 	0.5 	38.34 	-0.23297 	1.26224e-21
0.6875 	-0.96875 	0.5 	38.3407 	-0.250145 	2.95265e-20
0.703125 	-0.96875 	0.5 	38.3463 	-0.268968 	4.20372e-20
0.71875 	-0.96875 	0.5 	38.3512 	-0.290389 	1.19546e-19
0.734375 	-0.96875 	0.5 	38.357 	-0.307402 	5.42902e-20
0.75 	-0.96875 	0.5 	38.3606 	-0.32434 	1.54398e-20
0.765625 	-0.96875 	0.5 	38.3664 	-0.339685 	-5.35082e-21
0.78125 	-0.96875 	0.5 	38.3717 	-0.356378 	-2.12658e-20
0.796875 	-0.96875 	0.5 	38.3783 	-0.377606 	2.03386e-20
0.8125 	-0.96875 	0.5 	38.386 	-0.393976 	2.09398e-20
0.828125 	-0.96875 	0.5 	38.3939 	-0.408833 	8.39119e-20
0.84375 	-0.96875 	0.5 	38.4015 	-0.428045 	1.53944e-20
0.859375 	-0.96875 	0.5 	38.4097 	-0.443012 	1.92272e-20
0.875 	-0.96875 	0.5 	38.4194 	-0.457459 	2.62657e-20
0.890625 	-0.96875 	0.5 	38.4283 	-0.473832 	3.35054e-20
0.90625 	-0.96875 	0.5 	38.4376 	-0.488182 	3.13031e-20
0.921875 	-0.96875 	0.5 	38.4476 	-0.506732 	7.6904e-22
0.9375 	-0.96875 	0.5 	38.4573 	-0.524777 	-1.60635e-20
0.953125 	-0.96875 	0.5 	38.4665 	-0.542868 	-3.31898e-20
0.96875 	-0.96875 	0.5 	38.4773 	-0.556464 	3.84944e-21
0.984375 	-0.96875 	0.5 	38.4875 	-0.571585 	2.96134e-20
1 	-0.96875 	0.5 	38.4979 	-0.585885 	5.88471e-21
1.01562 	-0.96875 	0.5 	38.5089 	-0.598884 	2.11648e-21
1.03125 	-0.96875 	0.5 	38.5209 	-0.612598 	1.79724e-21
1.04688 	-0.96875 	0.5 	38.532 	-0.626904 	1.73264e-21
1.0625 	-0.96875 	0.5 	38.5448 	-0.641545 	8.88633e-22
1.07812 	-0.96875 	0.5 	38.5595 	-0.656389 	-2.99453e-22
1.09375 	-0.96875 	0.5 	38.573 	-0.669587 	1.31927e-20
1.10938 	-0.96875 	0.5 	38.5868 	-0.681053 	1.75196e-20
1.125 	-0.96875 	0.5 	38.6004 	-0.692559 	1.85402e-20
1.14062 	-0.96875 	0.5 	38.6136 	-0.703828 	3.58492e-21
1.15625 	-0.96875 	0.5 	38.6274 	-0.713653 	-4.33599e-21
1.17188 	-0.96875 	0.5 	38.6414 	-0.723584 	-5.06275e-21
1.1875 	-0.96875 	0.5 	38.6565 	-0.735373 	1.78888e-21
1.20312 	-0.96875 	0.5 	38.67 	-0.746987 	6.08609e-22
1.21875 	-0.96875 	0.5 	38.6828 	-0.75794 	2.64101e-21
1.23438 	-0.96875 	0.5 	38.6956 	-0.7684 	5.51322e-21
1.25 	-0.96875 	0.5 	38.7082 	-0.779186 	3.53477e-21
1.26562 	-0.96875 	0.5 	38.7236 	-0.786683 	-3.14487e-21
1.28125 	-0.96875 	0.5 	38.7388 	-0.795556 	-1.54379e-20
1.29688 	-0.96875 	0.5 	38.7533 	-0.804866 	-2.65511e-20
1.3125 	-0.96875 	0.5 	38.768 	-0.81248 	-3.43635e-20
1.32812 	-0.96875 	0.5 	38.7837 	-0.817493 	-1.89268e-21
1.34375 	-0.96875 	0.5 	38.7989 	-0.823017 	3.26094e-20
1.35938 	-0.96875 	0.5 	38.8158 	-0.831542 	-9.3525e-21
1.375 	-0.96875 	0.5 	38.8273 	-0.836587 	-5.00859e-20
1.39062 	-0.96875 	0.5 	38.8436 	-0.843514 	-1.02098e-20
1.40625 	-0.96875 	0.5 	38.8599 	-0.850431 	2.7702e-20
1.42188 	-0.96875 	0.5 	38.8752 	-0.855508 	5.8867e-20
1.4375 	-0.96875 	0.5 	38.8894 	-0.859649 	1.40415e-19
1.45312 	-0.96875 	0.5 	38.9037 	-0.863972 	2.13416e-19
1.46875 	-0.96875 	0.5 	38.9209 	-0.872881 	7.262e-20
1.48438 	-0.96875 	0.5 	38.9335 	-0.875681 	1.79725e-20
-0.5 	-0.953125 	0.5 	38.7914 	0.791772 	9.32916e-21
-0.484375 	-0.953125 	0.5 	38.7793 	0.783723 	9.29894e-20
-0.46875 	-0.953125 	0.5 	38.767 	0.776097 	1.50798e-19
-0.453125 	-0.953125 	0.5 	38.7541 	0.771249 	9.8321e-21
-0.4375 	-0.953125 	0.5 	38.7396 	0.764313 	4.32548e-21
-0.421875 	-0.953125 	0.5 	38.7277 	0.755315 	-1.10364e-20
-0.40625 	-0.953125 	0.5 	38.7167 	0.747362 	-1.75271e-20
-0.390625 	-0.953125 	0.5 	38.7057 	0.739417 	-3.22108e-20
-0.375 	-0.953125 	0.5 	38.6933 	0.730732 	-2.62338e-20
-0.359375 	-0.953125 	0.5 	38.6813 	0.723018 	-1.79653e-20
-0.34375 	-0.953125 	0.5 	38.6689 	0.713855 	6.2351e-20
-0.328125 	-0.953125 	0.5 	38.6567 	0.706489 	1.42708e-20
-0.3125 	-0.953125 	0.5 	38.6458 	0.696205 	7.31422e-21
-0.296875 	-0.953125 	0.5 	38.6343 	0.686849 	8.04204e-21
-0.28125 	-0.953125 	0.5 	38.6239 	0.677371 	8.60116e-23
-0.265625 	-0.953125 	0.5 	38.6139 	0.665217 	2.14032e-20
-0.25 	-0.953125 	0.5 	38.6022 	0.656433 	1.32336e-20
-0.234375 	-0.953125 	0.5 	38.5906 	0.647649 	5.06387e-21
-0.21875 	-0.953125 	0.5 	38.5792 	0.637762 	1.40027e-21
-0.203125 	-0.953125 	0.5 	38.5673 	0.62768 	1.62149e-22
-0.1875 	-0.953125 	0.5 	38.5567 	0.615285 	-1.86863e-21
-0.171875 	-0.953125 	0.5 	38.5451 	0.602383 	-1.19401e-20
-0.15625 	-0.953125 	0.5 	38.5361 	0.589275 	-1.84938e-21
-0.140625 	-0.953125 	0.5 	38.526 	0.57948 	1.62695e-21
-0.125 	-0.953125 	0.5 	38.5218 	0.564752 	-1.49746e-20
-0.109375 	-0.953125 	0.5 	38.5064 	0.55556 	-1.96737e-21
-0.09375 	-0.953125 	0.5 	38.4965 	0.544928 	3.89475e-21
-0.078125 	-0.953125 	0.5 	38.4877 	0.531897 	-5.18941e-21
-0.0625 	-0.953125 	0.5 	38.4794 	0.517752 	-1.60582e-20
-0.046875 	-0.953125 	0.5 	38.4716 	0.506817 	-4.06376e-21
-0.03125 	-0.953125 	0.5 	38.4632 	0.492436 	-1.3928e-20
-0.015625 	-0.953125 	0.5 	38.4564 	0.480097 	-7.68894e-21
0 	-0.953125 	0.5 	38.4469 	0.466857 	1.45066e-21
0.015625 	-0.953125 	0.5 	38.438 	0.45202 	-2.88843e-22
0.03125 	-0.953125 	0.5 	38.4306 	0.437176 	-4.25158e-23
0.046875 	-0.953125 	0.5 	38.424 	0.423829 	-1.01687e-20
0.0625 	-0.953125 	0.5 	38.417 	0.412251 	-5.36719e-20
0.078125 	-0.953125 	0.5 	38.4099 	0.400239 	-3.31637e-20
0.09375 	-0.953125 	0.5 	38.4009 	0.387394 	-1.93155e-23
0.109375 	-0.953125 	0.5 	38.397 	0.368327 	-1.90702e-20
0.125 	-0.953125 	0.5 	38.3907 	0.354498 	-1.07008e-21
0.140625 	-0.953125 	0.5 	38.3846 	0.341101 	4.09773e-21
0.15625 	-0.953125 	0.5 	38.3778 	0.326123 	3.15326e-21
0.171875 	-0.953125 	0.5 	38.3722 	0.311198 	-8.99465e-22
0.1875 	-0.953125 	0.5 	38.3649 	0.295589 	-1.14785e-20
0.203125 	-0.953125 	0.5 	38.3583 	0.2796 	-1.15325e-20
0.21875 	-0.953125 	0.5 	38.3534 	0.263604 	-9.64215e-21
0.234375 	-0.953125 	0.5 	38.3502 	0.248195 	7.28134e-20
0.25 	-0.953125 	0.5 	38.345 	0.233295 	5.12895e-20
0.265625 	-0.953125 	0.5 	38.3416 	0.218167 	-8.73905e-20
0.28125 	-0.953125 	0.5 	38.338 	0.203979 	-5.38748e-21
0.296875 	-0.953125 	0.5 	38.3332 	0.186877 	2.87465e-20
0.3125 	-0.953125 	0.5 	38.3266 	0.168739 	3.2273e-20
0.328125 	-0.953125 	0.5 	38.3213 	0.150781 	2.77036e-20
0.34375 	-0.953125 	0.5 	38.3165 	0.132895 	2.9836e-20
0.359375 	-0.953125 	0.5 	38.3116 	0.121695 	-1.42796e-19
0.375 	-0.953125 	0.5 	38.3096 	0.104637 	-1.08277e-20
0.390625 	-0.953125 	0.5 	38.3085 	0.0845574 	2.98849e-20
0.40625 	-0.953125 	0.5 	38.3061 	0.0691344 	3.47319e-22
0.421875 	-0.953125 	0.5 	38.3047 	0.0483574 	-1.91087e-20
0.4375 	-0.953125 	0.5 	38.3028 	0.0313493 	1.94687e-22
0.453125 	-0.953125 	0.5 	38.2996 	0.0149962 	-2.92535e-21
0.46875 	-0.953125 	0.5 	38.299 	-0.00247357 	-1.37093e-20
0.484375 	-0.953125 	0.5 	38.297 	-0.0216786 	6.58909e-20
0.5 	-0.953125 	0.5 	38.2982 	-0.0373207 	7.00138e-21
0.515625 	-0.953125 	0.5 	38.299 	-0.0568924 	-2.13046e-20
0.53125 	-0.953125 	0.5 	38.2988 	-0.0745754 	1.57469e-20
0.546875 	-0.953125 	0.5 	38.2991 	-0.0919243 	6.4369e-20
0.5625 	-0.953125 	0.5 	38.2997 	-0.107729 	6.04507e-20
0.578125 	-0.953125 	0.5 	38.3018 	-0.130152 	-6.24138e-20
0.59375 	-0.953125 	0.5 	38.303 	-0.147014 	-1.82393e-20
0.609375 	-0.953125 	0.5 	38.3065 	-0.165718 	-9.26106e-21
0.625 	-0.953125 	0.5 	38.3059 	-0.182194 	7.91771e-22
0.640625 	-0.953125 	0.5 	38.3072 	-0.202523 	7.26189e-21
0.65625 	-0.953125 	0.5 	38.31 	-0.221809 	1.33741e-20
0.671875 	-0.953125 	0.5 	38.3156 	-0.238558 	2.02626e-20
0.6875 	-0.953125 	0.5 	38.3212 	-0.255307 	2.71512e-20
0.703125 	-0.953125 	0.5 	38.3259 	-0.272738 	3.47497e-20
0.71875 	-0.953125 	0.5 	38.33 	-0.293028 	6.13538e-20
0.734375 	-0.953125 	0.5 	38.3353 	-0.312016 	5.73041e-20
0.75 	-0.953125 	0.5 	38.3426 	-0.329177 	1.48038e-20
0.765625 	-0.953125 	0.5 	38.3481 	-0.346971 	1.53101e-20
0.78125 	-0.953125 	0.5 	38.3535 	-0.365014 	1.22835e-20
0.796875 	-0.953125 	0.5 	38.3592 	-0.384218 	9.8804e-21
0.8125 	-0.953125 	0.5 	38.3688 	-0.401352 	3.44896e-20
0.828125 	-0.953125 	0.5 	38.3771 	-0.416637 	8.71062e-20
0.84375 	-0.953125 	0.5 	38.3852 	-0.436547 	-7.07882e-22
0.859375 	-0.953125 	0.5 	38.3922 	-0.451928 	5.77262e-22
0.875 	-0.953125 	0.5 	38.4038 	-0.465749 	1.14639e-20
0.890625 	-0.953125 	0.5 	38.4095 	-0.482111 	2.13977e-20
0.90625 	-0.953125 	0.5 	38.4202 	-0.499329 	4.74908e-20
0.921875 	-0.953125 	0.5 	38.4302 	-0.517559 	-1.39579e-20
0.9375 	-0.953125 	0.5 	38.4397 	-0.535029 	-1.91414e-20
0.953125 	-0.953125 	0.5 	38.4491 	-0.554312 	-6.01728e-20
0.96875 	-0.953125 	0.5 	38.4598 	-0.568219 	-2.7818e-20
0.984375 	-0.953125 	0.5 	38.4707 	-0.582033 	5.00491e-21
1 	-0.953125 	0.5 	38.4826 	-0.597332 	1.86071e-20
1.01562 	-0.953125 	0.5 	38.494 	-0.610421 	9.06983e-21
1.03125 	-0.953125 	0.5 	38.5055 	-0.623648 	5.49006e-21
1.04688 	-0.953125 	0.5 	38.5171 	-0.637442 	4.70309e-21
1.0625 	-0.953125 	0.5 	38.5327 	-0.652256 	1.94635e-21
1.07812 	-0.953125 	0.5 	38.5439 	-0.668282 	-1.26553e-21
1.09375 	-0.953125 	0.5 	38.5597 	-0.68365 	-1.559e-20
1.10938 	-0.953125 	0.5 	38.5719 	-0.694477 	1.91842e-20
1.125 	-0.953125 	0.5 	38.5852 	-0.706031 	1.64462e-20
1.14062 	-0.953125 	0.5 	38.5986 	-0.715237 	1.25174e-21
1.15625 	-0.953125 	0.5 	38.6134 	-0.728281 	9.27597e-22
1.17188 	-0.953125 	0.5 	38.6273 	-0.738107 	-2.18328e-21
1.1875 	-0.953125 	0.5 	38.6444 	-0.752972 	4.13984e-21
1.20312 	-0.953125 	0.5 	38.6587 	-0.76192 	2.8435e-21
1.21875 	-0.953125 	0.5 	38.6714 	-0.774208 	2.60121e-21
1.23438 	-0.953125 	0.5 	38.6845 	-0.781384 	1.11041e-20
1.25 	-0.953125 	0.5 	38.6972 	-0.794276 	7.69575e-21
1.26562 	-0.953125 	0.5 	38.7091 	-0.805857 	-1.70114e-20
1.28125 	-0.953125 	0.5 	38.7248 	-0.813285 	-2.16121e-20
1.29688 	-0.953125 	0.5 	38.7417 	-0.820445 	-1.81628e-20
1.3125 	-0.953125 	0.5 	38.7584 	-0.827336 	-1.23807e-20
1.32812 	-0.953125 	0.5 	38.7742 	-0.833564 	8.4632e-21
1.34375 	-0.953125 	0.5 	38.79 	-0.839749 	3.09812e-20
1.35938 	-0.953125 	0.5 	38.8074 	-0.847765 	2.03365e-20
1.375 	-0.953125 	0.5 	38.8213 	-0.853885 	1.24747e-20
1.39062 	-0.953125 	0.5 	38.8377 	-0.860637 	1.89782e-20
1.40625 	-0.953125 	0.5 	38.8542 	-0.866856 	1.16694e-20
1.42188 	-0.953125 	0.5 	38.8696 	-0.870936 	1.19023e-19
1.4375 	-0.953125 	0.5 	38.8855 	-0.876966 	5.45485e-20
1.45312 	-0.953125 	0.5 	38.9002 	-0.88174 	8.71502e-20
1.46875 	-0.953125 	0.5 	38.9159 	-0.888306 	4.82864e-20
1.48438 	-0.953125 	0.5 	38.9297 	-0.890917 	1.74057e-20
-0.5 	-0.9375 	0.5 	38.7811 	0.804822 	-3.06177e-20
-0.484375 	-0.9375 	0.5 	38.7696 	0.795558 	5.88342e-20
-0.46875 	-0.9375 	0.5 	38.7574 	0.788593 	7.61848e-20
-0.453125 	-0.9375 	0.5 	38.744 	0.782113 	-2.13551e-21
-0.4375 	-0.9375 	0.5 	38.7293 	0.775319 	-6.82964e-21
-0.421875 	-0.9375 	0.5 	38.7161 	0.767479 	-1.278e-20
-0.40625 	-0.9375 	0.5 	38.7055 	0.759457 	-3.17549e-20
-0.390625 	-0.9375 	0.5 	38.6934 	0.751717 	-2.60353e-20
-0.375 	-0.9375 	0.5 	38.6815 	0.743961 	-2.15304e-20
-0.359375 	-0.9375 	0.5 	38.6693 	0.735024 	3.44411e-21
-0.34375 	-0.9375 	0.5 	38.657 	0.724992 	6.62392e-20
-0.328125 	-0.9375 	0.5 	38.6444 	0.718217 	1.35062e-20
-0.3125 	-0.9375 	0.5 	38.634 	0.707407 	2.02393e-21
-0.296875 	-0.9375 	0.5 	38.6223 	0.698044 	2.9924e-21
-0.28125 	-0.9375 	0.5 	38.6106 	0.688666 	3.8785e-21
-0.265625 	-0.9375 	0.5 	38.5986 	0.675989 	-9.21923e-22
-0.25 	-0.9375 	0.5 	38.5867 	0.663688 	-5.08853e-21
-0.234375 	-0.9375 	0.5 	38.5761 	0.657867 	-1.22234e-21
-0.21875 	-0.9375 	0.5 	38.5657 	0.648035 	1.77346e-21
-0.203125 	-0.9375 	0.5 	38.555 	0.635504 	4.78307e-21
-0.1875 	-0.9375 	0.5 	38.5436 	0.624323 	-1.04766e-22
-0.171875 	-0.9375 	0.5 	38.5324 	0.612014 	-5.21947e-21
-0.15625 	-0.9375 	0.5 	38.5223 	0.602714 	1.00413e-20
-0.140625 	-0.9375 	0.5 	38.5127 	0.590618 	4.2612e-22
-0.125 	-0.9375 	0.5 	38.5024 	0.577886 	-1.84224e-21
-0.109375 	-0.9375 	0.5 	38.4912 	0.564712 	3.16159e-21
-0.09375 	-0.9375 	0.5 	38.4821 	0.554096 	6.40563e-24
-0.078125 	-0.9375 	0.5 	38.4737 	0.541879 	-2.68355e-21
-0.0625 	-0.9375 	0.5 	38.4648 	0.528322 	-1.09874e-20
-0.046875 	-0.9375 	0.5 	38.4575 	0.516079 	-5.50883e-21
-0.03125 	-0.9375 	0.5 	38.4513 	0.502385 	-4.42469e-21
-0.015625 	-0.9375 	0.5 	38.4435 	0.48927 	1.03902e-21
0 	-0.9375 	0.5 	38.4315 	0.475409 	2.59599e-20
0.015625 	-0.9375 	0.5 	38.4211 	0.460522 	3.10957e-21
0.03125 	-0.9375 	0.5 	38.4161 	0.446434 	1.12044e-20