-0.5 	-1 	0.5 	91.7249
-0.484375 	-1 	0.5 	91.6089
-0.46875 	-1 	0.5 	91.5304
-0.453125 	-1 	0.5 	91.4575
-0.4375 	-1 	0.5 	91.383
-0.421875 	-1 	0.5 	91.3085
-0.40625 	-1 	0.5 	91.2095
-0.390625 	-1 	0.5 	91.1004
-0.375 	-1 	0.5 	90.9877
-0.359375 	-1 	0.5 	90.8748
-0.34375 	-1 	0.5 	90.7369
-0.328125 	-1 	0.5 	90.635
-0.3125 	-1 	0.5 	90.5002
-0.296875 	-1 	0.5 	90.387
-0.28125 	-1 	0.5 	90.2491
-0.265625 	-1 	0.5 	90.1147
-0.25 	-1 	0.5 	89.9701
-0.234375 	-1 	0.5 	89.8151
-0.21875 	-1 	0.5 	89.6386
-0.203125 	-1 	0.5 	89.4726
-0.1875 	-1 	0.5 	89.337
-0.171875 	-1 	0.5 	89.1863
-0.15625 	-1 	0.5 	89.0364
-0.140625 	-1 	0.5 	88.8637
-0.125 	-1 	0.5 	88.7018
-0.109375 	-1 	0.5 	88.533
-0.09375 	-1 	0.5 	88.365
-0.078125 	-1 	0.5 	88.198
-0.0625 	-1 	0.5 	88.0402
-0.046875 	-1 	0.5 	87.8881
-0.03125 	-1 	0.5 	87.7349
-0.015625 	-1 	0.5 	87.5788
0 	-1 	0.5 	87.4215
0.015625 	-1 	0.5 	87.2647
0.03125 	-1 	0.5 	87.1048
0.046875 	-1 	0.5 	86.9527
0.0625 	-1 	0.5 	86.833
0.078125 	-1 	0.5 	86.7108
0.09375 	-1 	0.5 	86.6265
0.109375 	-1 	0.5 	86.526
0.125 	-1 	0.5 	86.3635
0.140625 	-1 	0.5 	86.2441
0.15625 	-1 	0.5 	86.1673
0.171875 	-1 	0.5 	86.097
0.1875 	-1 	0.5 	86.0259
0.203125 	-1 	0.5 	85.9722
0.21875 	-1 	0.5 	85.905
0.234375 	-1 	0.5 	85.8415
0.25 	-1 	0.5 	85.7808
0.265625 	-1 	0.5 	85.7881
0.28125 	-1 	0.5 	85.8506
0.296875 	-1 	0.5 	85.8127
0.3125 	-1 	0.5 	85.8179
0.328125 	-1 	0.5 	85.8162
0.34375 	-1 	0.5 	85.8717
0.359375 	-1 	0.5 	85.8804
0.375 	-1 	0.5 	85.9519
0.390625 	-1 	0.5 	85.98
0.40625 	-1 	0.5 	86.0307
0.421875 	-1 	0.5 	86.1584
0.4375 	-1 	0.5 	86.2738
0.453125 	-1 	0.5 	86.3881
0.46875 	-1 	0.5 	86.502
0.484375 	-1 	0.5 	86.577
0.5 	-1 	0.5 	86.6984
0.515625 	-1 	0.5 	86.8402
0.53125 	-1 	0.5 	87.0451
0.546875 	-1 	0.5 	87.1998
0.5625 	-1 	0.5 	87.3477
0.578125 	-1 	0.5 	87.5048
0.59375 	-1 	0.5 	87.6595
0.609375 	-1 	0.5 	87.8276
0.625 	-1 	0.5 	87.9771
0.640625 	-1 	0.5 	88.1724
0.65625 	-1 	0.5 	88.4002
0.671875 	-1 	0.5 	88.6184
0.6875 	-1 	0.5 	88.7814
0.703125 	-1 	0.5 	88.9667
0.71875 	-1 	0.5 	89.1457
0.734375 	-1 	0.5 	89.3481
0.75 	-1 	0.5 	89.5373
0.765625 	-1 	0.5 	89.7518
0.78125 	-1 	0.5 	89.9315
0.796875 	-1 	0.5 	90.1006
0.8125 	-1 	0.5 	90.2866
0.828125 	-1 	0.5 	90.4985
0.84375 	-1 	0.5 	90.6825
0.859375 	-1 	0.5 	90.8399
0.875 	-1 	0.5 	91.0502
0.890625 	-1 	0.5 	91.1993
0.90625 	-1 	0.5 	91.375
0.921875 	-1 	0.5 	91.4947
0.9375 	-1 	0.5 	91.6581
0.953125 	-1 	0.5 	91.8394
0.96875 	-1 	0.5 	91.9992
0.984375 	-1 	0.5 	92.1017
1 	-1 	0.5 	92.2038
1.01562 	-1 	0.5 	92.3025
1.03125 	-1 	0.5 	92.4381
1.04688 	-1 	0.5 	92.5773
1.0625 	-1 	0.5 	92.7976
1.07812 	-1 	0.5 	92.8004
1.09375 	-1 	0.5 	92.8964
1.10938 	-1 	0.5 	92.9773
1.125 	-1 	0.5 	93.0364
1.14062 	-1 	0.5 	93.1348
1.15625 	-1 	0.5 	93.213
1.17188 	-1 	0.5 	93.2721
1.1875 	-1 	0.5 	93.3325
1.20312 	-1 	0.5 	93.3903
1.21875 	-1 	0.5 	93.4324
1.23438 	-1 	0.5 	93.4654
1.25 	-1 	0.5 	93.5125
1.26562 	-1 	0.5 	93.55
1.28125 	-1 	0.5 	93.525
1.29688 	-1 	0.5 	93.5232
1.3125 	-1 	0.5 	93.5867
1.32812 	-1 	0.5 	93.6094
1.34375 	-1 	0.5 	93.6339
1.35938 	-1 	0.5 	93.644
1.375 	-1 	0.5 	93.6456
1.39062 	-1 	0.5 	93.6148
1.40625 	-1 	0.5 	93.5811
1.42188 	-1 	0.5 	93.5804
1.4375 	-1 	0.5 	93.5781
1.45312 	-1 	0.5 	93.5621
1.46875 	-1 	0.5 	93.5258
1.48438 	-1 	0.5 	93.4978
-0.5 	-0.984375 	0.5 	91.8069
-0.484375 	-0.984375 	0.5 	91.7279
-0.46875 	-0.984375 	0.5 	91.6473
-0.453125 	-0.984375 	0.5 	91.5642
-0.4375 	-0.984375 	0.5 	91.5011
-0.421875 	-0.984375 	0.5 	91.4048
-0.40625 	-0.984375 	0.5 	91.2835
-0.390625 	-0.984375 	0.5 	91.1764
-0.375 	-0.984375 	0.5 	91.0636
-0.359375 	-0.984375 	0.5 	90.9446
-0.34375 	-0.984375 	0.5 	90.8325
-0.328125 	-0.984375 	0.5 	90.6891
-0.3125 	-0.984375 	0.5 	90.5464
-0.296875 	-0.984375 	0.5 	90.4267
-0.28125 	-0.984375 	0.5 	90.2974
-0.265625 	-0.984375 	0.5 	90.1359
-0.25 	-0.984375 	0.5 	89.9527
-0.234375 	-0.984375 	0.5 	89.8283
-0.21875 	-0.984375 	0.5 	89.6599
-0.203125 	-0.984375 	0.5 	89.4867
-0.1875 	-0.984375 	0.5 	89.3296
-0.171875 	-0.984375 	0.5 	89.2009
-0.15625 	-0.984375 	0.5 	89.0215
-0.140625 	-0.984375 	0.5 	88.8486
-0.125 	-0.984375 	0.5 	88.6699
-0.109375 	-0.984375 	0.5 	88.502
-0.09375 	-0.984375 	0.5 	88.3157
-0.078125 	-0.984375 	0.5 	88.1442
-0.0625 	-0.984375 	0.5 	87.9516
-0.046875 	-0.984375 	0.5 	87.7977
-0.03125 	-0.984375 	0.5 	87.6395
-0.015625 	-0.984375 	0.5 	87.4674
0 	-0.984375 	0.5 	87.3132
0.015625 	-0.984375 	0.5 	87.1498
0.03125 	-0.984375 	0.5 	86.9848
0.046875 	-0.984375 	0.5 	86.8478
0.0625 	-0.984375 	0.5 	86.7154
0.078125 	-0.984375 	0.5 	86.576
0.09375 	-0.984375 	0.5 	86.4348
0.109375 	-0.984375 	0.5 	86.339
0.125 	-0.984375 	0.5 	86.1454
0.140625 	-0.984375 	0.5 	86.0572
0.15625 	-0.984375 	0.5 	85.9787
0.171875 	-0.984375 	0.5 	85.9079
0.1875 	-0.984375 	0.5 	85.8424
0.203125 	-0.984375 	0.5 	85.7877
0.21875 	-0.984375 	0.5 	85.712
0.234375 	-0.984375 	0.5 	85.668
0.25 	-0.984375 	0.5 	85.6403
0.265625 	-0.984375 	0.5 	85.5733
0.28125 	-0.984375 	0.5 	85.6242
0.296875 	-0.984375 	0.5 	85.5827
0.3125 	-0.984375 	0.5 	85.5908
0.328125 	-0.984375 	0.5 	85.6503
0.34375 	-0.984375 	0.5 	85.6376
0.359375 	-0.984375 	0.5 	85.6643
0.375 	-0.984375 	0.5 	85.7211
0.390625 	-0.984375 	0.5 	85.7807
0.40625 	-0.984375 	0.5 	85.8747
0.421875 	-0.984375 	0.5 	85.949
0.4375 	-0.984375 	0.5 	86.1027
0.453125 	-0.984375 	0.5 	86.213
0.46875 	-0.984375 	0.5 	86.3535
0.484375 	-0.984375 	0.5 	86.4037
0.5 	-0.984375 	0.5 	86.5324
0.515625 	-0.984375 	0.5 	86.6825
0.53125 	-0.984375 	0.5 	86.8713
0.546875 	-0.984375 	0.5 	87.0559
0.5625 	-0.984375 	0.5 	87.2224
0.578125 	-0.984375 	0.5 	87.3876
0.59375 	-0.984375 	0.5 	87.5356
0.609375 	-0.984375 	0.5 	87.7189
0.625 	-0.984375 	0.5 	87.9119
0.640625 	-0.984375 	0.5 	88.1133
0.65625 	-0.984375 	0.5 	88.3208
0.671875 	-0.984375 	0.5 	88.522
0.6875 	-0.984375 	0.5 	88.7403
0.703125 	-0.984375 	0.5 	88.9126
0.71875 	-0.984375 	0.5 	89.0937
0.734375 	-0.984375 	0.5 	89.3337
0.75 	-0.984375 	0.5 	89.5382
0.765625 	-0.984375 	0.5 	89.7379
0.78125 	-0.984375 	0.5 	89.9459
0.796875 	-0.984375 	0.5 	90.1518
0.8125 	-0.984375 	0.5 	90.34
0.828125 	-0.984375 	0.5 	90.5251
0.84375 	-0.984375 	0.5 	90.7224
0.859375 	-0.984375 	0.5 	90.8732
0.875 	-0.984375 	0.5 	91.0568
0.890625 	-0.984375 	0.5 	91.2631
0.90625 	-0.984375 	0.5 	91.4011
0.921875 	-0.984375 	0.5 	91.5608
0.9375 	-0.984375 	0.5 	91.7596
0.953125 	-0.984375 	0.5 	91.9361
0.96875 	-0.984375 	0.5 	92.1026
0.984375 	-0.984375 	0.5 	92.1685
1 	-0.984375 	0.5 	92.2635
1.01562 	-0.984375 	0.5 	92.4213
1.03125 	-0.984375 	0.5 	92.5555
1.04688 	-0.984375 	0.5 	92.7095
1.0625 	-0.984375 	0.5 	92.8422
1.07812 	-0.984375 	0.5 	92.9382
1.09375 	-0.984375 	0.5 	93.0287
1.10938 	-0.984375 	0.5 	93.1093
1.125 	-0.984375 	0.5 	93.1893
1.14062 	-0.984375 	0.5 	93.2761
1.15625 	-0.984375 	0.5 	93.3335
1.17188 	-0.984375 	0.5 	93.3961
1.1875 	-0.984375 	0.5 	93.4658
1.20312 	-0.984375 	0.5 	93.5383
1.21875 	-0.984375 	0.5 	93.5672
1.23438 	-0.984375 	0.5 	93.595
1.25 	-0.984375 	0.5 	93.6462
1.26562 	-0.984375 	0.5 	93.6869
1.28125 	-0.984375 	0.5 	93.6952
1.29688 	-0.984375 	0.5 	93.7093
1.3125 	-0.984375 	0.5 	93.7234
1.32812 	-0.984375 	0.5 	93.7396
1.34375 	-0.984375 	0.5 	93.7352
1.35938 	-0.984375 	0.5 	93.7349
1.375 	-0.984375 	0.5 	93.7346
1.39062 	-0.984375 	0.5 	93.7294
1.40625 	-0.984375 	0.5 	93.7095
1.42188 	-0.984375 	0.5 	93.703
1.4375 	-0.984375 	0.5 	93.6939
1.45312 	-0.984375 	0.5 	93.6721
1.46875 	-0.984375 	0.5 	93.6359
1.48438 	-0.984375 	0.5 	93.5974
-0.5 	-0.96875 	0.5 	91.9173
-0.484375 	-0.96875 	0.5 	91.8389
-0.46875 	-0.96875 	0.5 	91.7531
-0.453125 	-0.96875 	0.5 	91.6616
-0.4375 	-0.96875 	0.5 	91.587
-0.421875 	-0.96875 	0.5 	91.4922
-0.40625 	-0.96875 	0.5 	91.3711
-0.390625 	-0.96875 	0.5 	91.2479
-0.375 	-0.96875 	0.5 	91.135
-0.359375 	-0.96875 	0.5 	91.0193
-0.34375 	-0.96875 	0.5 	90.8938
-0.328125 	-0.96875 	0.5 	90.736
-0.3125 	-0.96875 	0.5 	90.6061
-0.296875 	-0.96875 	0.5 	90.4606
-0.28125 	-0.96875 	0.5 	90.3365
-0.265625 	-0.96875 	0.5 	90.1953
-0.25 	-0.96875 	0.5 	90.0155
-0.234375 	-0.96875 	0.5 	89.8412
-0.21875 	-0.96875 	0.5 	89.6421
-0.203125 	-0.96875 	0.5 	89.5087
-0.1875 	-0.96875 	0.5 	89.3107
-0.171875 	-0.96875 	0.5 	89.1691
-0.15625 	-0.96875 	0.5 	89.0086
-0.140625 	-0.96875 	0.5 	88.8279
-0.125 	-0.96875 	0.5 	88.6469
-0.109375 	-0.96875 	0.5 	88.4493
-0.09375 	-0.96875 	0.5 	88.2449
-0.078125 	-0.96875 	0.5 	88.0816
-0.0625 	-0.96875 	0.5 	87.8783
-0.046875 	-0.96875 	0.5 	87.7007
-0.03125 	-0.96875 	0.5 	87.5344
-0.015625 	-0.96875 	0.5 	87.3589
0 	-0.96875 	0.5 	87.1763
0.015625 	-0.96875 	0.5 	87.0234
0.03125 	-0.96875 	0.5 	86.8577
0.046875 	-0.96875 	0.5 	86.7352
0.0625 	-0.96875 	0.5 	86.5631
0.078125 	-0.96875 	0.5 	86.423
0.09375 	-0.96875 	0.5 	86.2858
0.109375 	-0.96875 	0.5 	86.1476
0.125 	-0.96875 	0.5 	86.0212
0.140625 	-0.96875 	0.5 	85.9098
0.15625 	-0.96875 	0.5 	85.7984
0.171875 	-0.96875 	0.5 	85.722
0.1875 	-0.96875 	0.5 	85.6545
0.203125 	-0.96875 	0.5 	85.5888
0.21875 	-0.96875 	0.5 	85.5369
0.234375 	-0.96875 	0.5 	85.4847
0.25 	-0.96875 	0.5 	85.4258
0.265625 	-0.96875 	0.5 	85.3627
0.28125 	-0.96875 	0.5 	85.3424
0.296875 	-0.96875 	0.5 	85.3506
0.3125 	-0.96875 	0.5 	85.286
0.328125 	-0.96875 	0.5 	85.3671
0.34375 	-0.96875 	0.5 	85.4217
0.359375 	-0.96875 	0.5 	85.4677
0.375 	-0.96875 	0.5 	85.5142
0.390625 	-0.96875 	0.5 	85.5621
0.40625 	-0.96875 	0.5 	85.674
0.421875 	-0.96875 	0.5 	85.7547
0.4375 	-0.96875 	0.5 	85.9065
0.453125 	-0.96875 	0.5 	86.0682
0.46875 	-0.96875 	0.5 	86.1352
0.484375 	-0.96875 	0.5 	86.2345
0.5 	-0.96875 	0.5 	86.3308
0.515625 	-0.96875 	0.5 	86.4839
0.53125 	-0.96875 	0.5 	86.6784
0.546875 	-0.96875 	0.5 	86.9263
0.5625 	-0.96875 	0.5 	87.0794
0.578125 	-0.96875 	0.5 	87.2462
0.59375 	-0.96875 	0.5 	87.4485
0.609375 	-0.96875 	0.5 	87.6992
0.625 	-0.96875 	0.5 	87.8222
0.640625 	-0.96875 	0.5 	88.0577
0.65625 	-0.96875 	0.5 	88.245
0.671875 	-0.96875 	0.5 	88.4529
0.6875 	-0.96875 	0.5 	88.6868
0.703125 	-0.96875 	0.5 	88.8876
0.71875 	-0.96875 	0.5 	89.0479
0.734375 	-0.96875 	0.5 	89.302
0.75 	-0.96875 	0.5 	89.5259
0.765625 	-0.96875 	0.5 	89.7384
0.78125 	-0.96875 	0.5 	89.94
0.796875 	-0.96875 	0.5 	90.1537
0.8125 	-0.96875 	0.5 	90.3853
0.828125 	-0.96875 	0.5 	90.5797
0.84375 	-0.96875 	0.5 	90.7593
0.859375 	-0.96875 	0.5 	90.9451
0.875 	-0.96875 	0.5 	91.1289
0.890625 	-0.96875 	0.5 	91.3248
0.90625 	-0.96875 	0.5 	91.5019
0.921875 	-0.96875 	0.5 	91.6592
0.9375 	-0.96875 	0.5 	91.8484
0.953125 	-0.96875 	0.5 	92.0428
0.96875 	-0.96875 	0.5 	92.1886
0.984375 	-0.96875 	0.5 	92.332
1 	-0.96875 	0.5 	92.4177
1.01562 	-0.96875 	0.5 	92.5541
1.03125 	-0.96875 	0.5 	92.6833
1.04688 	-0.96875 	0.5 	92.8149
1.0625 	-0.96875 	0.5 	92.9429
1.07812 	-0.96875 	0.5 	93.0631
1.09375 	-0.96875 	0.5 	93.1617
1.10938 	-0.96875 	0.5 	93.2399
1.125 	-0.96875 	0.5 	93.3156
1.14062 	-0.96875 	0.5 	93.4074
1.15625 	-0.96875 	0.5 	93.4993
1.17188 	-0.96875 	0.5 	93.5527
1.1875 	-0.96875 	0.5 	93.6264
1.20312 	-0.96875 	0.5 	93.6691
1.21875 	-0.96875 	0.5 	93.716
1.23438 	-0.96875 	0.5 	93.756
1.25 	-0.96875 	0.5 	93.7918
1.26562 	-0.96875 	0.5 	93.8215
1.28125 	-0.96875 	0.5 	93.8203
1.29688 	-0.96875 	0.5 	93.8298
1.3125 	-0.96875 	0.5 	93.8603
1.32812 	-0.96875 	0.5 	93.8687
1.34375 	-0.96875 	0.5 	93.8667
1.35938 	-0.96875 	0.5 	93.8413
1.375 	-0.96875 	0.5 	93.8379
1.39062 	-0.96875 	0.5 	93.8464
1.40625 	-0.96875 	0.5 	93.8247
1.42188 	-0.96875 	0.5 	93.8176
1.4375 	-0.96875 	0.5 	93.807
1.45312 	-0.96875 	0.5 	93.7822
1.46875 	-0.96875 	0.5 	93.7484
1.48438 	-0.96875 	0.5 	93.7083
-0.5 	-0.953125 	0.5 	92.0038
-0.484375 	-0.953125 	0.5 	91.9578
-0.46875 	-0.953125 	0.5 	91.8684
-0.453125 	-0.953125 	0.5 	91.7734
-0.4375 	-0.953125 	0.5 	91.6713
-0.421875 	-0.953125 	0.5 	91.5649
-0.40625 	-0.953125 	0.5 	91.4572
-0.390625 	-0.953125 	0.5 	91.3222
-0.375 	-0.953125 	0.5 	91.1794
-0.359375 	-0.953125 	0.5 	91.0768
-0.34375 	-0.953125 	0.5 	90.9822
-0.328125 	-0.953125 	0.5 	90.8161
-0.3125 	-0.953125 	0.5 	90.6812
-0.296875 	-0.953125 	0.5 	90.5236
-0.28125 	-0.953125 	0.5 	90.3792
-0.265625 	-0.953125 	0.5 	90.2059
-0.25 	-0.953125 	0.5 	90.0621
-0.234375 	-0.953125 	0.5 	89.8793
-0.21875 	-0.953125 	0.5 	89.6708
-0.203125 	-0.953125 	0.5 	89.5213
-0.1875 	-0.953125 	0.5 	89.3262
-0.171875 	-0.953125 	0.5 	89.1687
-0.15625 	-0.953125 	0.5 	88.9838
-0.140625 	-0.953125 	0.5 	88.8162
-0.125 	-0.953125 	0.5 	88.6077
-0.109375 	-0.953125 	0.5 	88.4356
-0.09375 	-0.953125 	0.5 	88.2268
-0.078125 	-0.953125 	0.5 	88.0291
-0.0625 	-0.953125 	0.5 	87.8348
-0.046875 	-0.953125 	0.5 	87.6335
-0.03125 	-0.953125 	0.5 	87.4337
-0.015625 	-0.953125 	0.5 	87.2521
0 	-0.953125 	0.5 	87.0446
0.015625 	-0.953125 	0.5 	86.8868
0.03125 	-0.953125 	0.5 	86.7183
0.046875 	-0.953125 	0.5 	86.5677
0.0625 	-0.953125 	0.5 	86.4162
0.078125 	-0.953125 	0.5 	86.264
0.09375 	-0.953125 	0.5 	86.1231
0.109375 	-0.953125 	0.5 	85.9728
0.125 	-0.953125 	0.5 	85.8232
0.140625 	-0.953125 	0.5 	85.6566
0.15625 	-0.953125 	0.5 	85.5932
0.171875 	-0.953125 	0.5 	85.4909
0.1875 	-0.953125 	0.5 	85.4234
0.203125 	-0.953125 	0.5 	85.3387
0.21875 	-0.953125 	0.5 	85.2624
0.234375 	-0.953125 	0.5 	85.2359
0.25 	-0.953125 	0.5 	85.1903
0.265625 	-0.953125 	0.5 	85.1333
0.28125 	-0.953125 	0.5 	85.097
0.296875 	-0.953125 	0.5 	85.0947
0.3125 	-0.953125 	0.5 	85.1133
0.328125 	-0.953125 	0.5 	85.1439
0.34375 	-0.953125 	0.5 	85.1975
0.359375 	-0.953125 	0.5 	85.2331
0.375 	-0.953125 	0.5 	85.2793
0.390625 	-0.953125 	0.5 	85.3278
0.40625 	-0.953125 	0.5 	85.4397
0.421875 	-0.953125 	0.5 	85.5435
0.4375 	-0.953125 	0.5 	85.6492
0.453125 	-0.953125 	0.5 	85.7694
0.46875 	-0.953125 	0.5 	85.9065
0.484375 	-0.953125 	0.5 	86.0741
0.5 	-0.953125 	0.5 	86.1962
0.515625 	-0.953125 	0.5 	86.3368
0.53125 	-0.953125 	0.5 	86.4934
0.546875 	-0.953125 	0.5 	86.7771
0.5625 	-0.953125 	0.5 	86.9294
0.578125 	-0.953125 	0.5 	87.0852
0.59375 	-0.953125 	0.5 	87.3915
0.609375 	-0.953125 	0.5 	87.5347
0.625 	-0.953125 	0.5 	87.7184
0.640625 	-0.953125 	0.5 	87.9613
0.65625 	-0.953125 	0.5 	88.1887
0.671875 	-0.953125 	0.5 	88.4097
0.6875 	-0.953125 	0.5 	88.6403
0.703125 	-0.953125 	0.5 	88.8669
0.71875 	-0.953125 	0.5 	89.0696
0.734375 	-0.953125 	0.5 	89.2713
0.75 	-0.953125 	0.5 	89.524
0.765625 	-0.953125 	0.5 	89.7334
0.78125 	-0.953125 	0.5 	89.9354
0.796875 	-0.953125 	0.5 	90.1692
0.8125 	-0.953125 	0.5 	90.405
0.828125 	-0.953125 	0.5 	90.6117
0.84375 	-0.953125 	0.5 	90.8036
0.859375 	-0.953125 	0.5 	91.0223
0.875 	-0.953125 	0.5 	91.2075
0.890625 	-0.953125 	0.5 	91.4202
0.90625 	-0.953125 	0.5 	91.6031
0.921875 	-0.953125 	0.5 	91.7687
0.9375 	-0.953125 	0.5 	91.9306
0.953125 	-0.953125 	0.5 	92.1229
0.96875 	-0.953125 	0.5 	92.2723
0.984375 	-0.953125 	0.5 	92.4176
1 	-0.953125 	0.5 	92.5686
1.01562 	-0.953125 	0.5 	92.6955
1.03125 	-0.953125 	0.5 	92.8209
1.04688 	-0.953125 	0.5 	92.9635
1.0625 	-0.953125 	0.5 	93.0648
1.07812 	-0.953125 	0.5 	93.1672
1.09375 	-0.953125 	0.5 	93.2802
1.10938 	-0.953125 	0.5 	93.3701
1.125 	-0.953125 	0.5 	93.4558
1.14062 	-0.953125 	0.5 	93.5415
1.15625 	-0.953125 	0.5 	93.6319
1.17188 	-0.953125 	0.5 	93.6929
1.1875 	-0.953125 	0.5 	93.7536
1.20312 	-0.953125 	0.5 	93.8168
1.21875 	-0.953125 	0.5 	93.8574
1.23438 	-0.953125 	0.5 	93.8933
1.25 	-0.953125 	0.5 	93.9265
1.26562 	-0.953125 	0.5 	93.9561
1.28125 	-0.953125 	0.5 	93.9606
1.29688 	-0.953125 	0.5 	93.9809
1.3125 	-0.953125 	0.5 	94.0026
1.32812 	-0.953125 	0.5 	93.9977
1.34375 	-0.953125 	0.5 	93.9983
1.35938 	-0.953125 	0.5 	93.9918
1.375 	-0.953125 	0.5 	93.9869
1.39062 	-0.953125 	0.5 	93.9706
1.40625 	-0.953125 	0.5 	93.9457
1.42188 	-0.953125 	0.5 	93.9292
1.4375 	-0.953125 	0.5 	93.9202
1.45312 	-0.953125 	0.5 	93.8899
1.46875 	-0.953125 	0.5 	93.851
1.48438 	-0.953125 	0.5 	93.8134
-0.5 	-0.9375 	0.5 	92.11
-0.484375 	-0.9375 	0.5 	92.064
-0.46875 	-0.9375 	0.5 	91.965
-0.453125 	-0.9375 	0.5 	91.9032
-0.4375 	-0.9375 	0.5 	91.7733
-0.421875 	-0.9375 	0.5 	91.6706
-0.40625 	-0.9375 	0.5 	91.5612
-0.390625 	-0.9375 	0.5 	91.3784
-0.375 	-0.9375 	0.5 	91.2925
-0.359375 	-0.9375 	0.5 	91.1915
-0.34375 	-0.9375 	0.5 	91.0997
-0.328125 	-0.9375 	0.5 	90.9296
-0.3125 	-0.9375 	0.5 	90.7616
-0.296875 	-0.9375 	0.5 	90.5998
-0.28125 	-0.9375 	0.5 	90.4368
-0.265625 	-0.9375 	0.5 	90.2567
-0.25 	-0.9375 	0.5 	90.122
-0.234375 	-0.9375 	0.5 	89.9507
-0.21875 	-0.9375 	0.5 	89.7324
-0.203125 	-0.9375 	0.5 	89.5377
-0.1875 	-0.9375 	0.5 	89.3632
-0.171875 	-0.9375 	0.5 	89.1765
-0.15625 	-0.9375 	0.5 	88.9792
-0.140625 	-0.9375 	0.5 	88.7547
-0.125 	-0.9375 	0.5 	88.5695
-0.109375 	-0.9375 	0.5 	88.386
-0.09375 	-0.9375 	0.5 	88.1685
-0.078125 	-0.9375 	0.5 	87.9717
-0.0625 	-0.9375 	0.5 	87.7569
-0.046875 	-0.9375 	0.5 	87.5595
-0.03125 	-0.9375 	0.5 	87.3616
-0.015625 	-0.9375 	0.5 	87.1562
0 	-0.9375 	0.5 	86.9454
0.015625 	-0.9375 	0.5 	86.7838
0.03125 	-0.9375 	0.5 	86.5834
0.046875 	-0.9375 	0.5 	86.4112
0.0625 	-0.9375 	0.5 	86.2275
0.078125 	-0.9375 	0.5 	86.1082
0.09375 	-0.9375 	0.5 	85.9549
0.109375 	-0.9375 	0.5 	85.7902
0.125 	-0.9375 	0.5 	85.64
0.140625 	-0.9375 	0.5 	85.5019
0.15625 	-0.9375 	0.5 	85.3658
0.171875 	-0.9375 	0.5 	85.2605
0.1875 	-0.9375 	0.5 	85.1785
0.203125 	-0.9375 	0.5 	85.0911
0.21875 	-0.9375 	0.5 	84.9992
0.234375 	-0.9375 	0.5 	84.9747
0.25 	-0.9375 	0.5 	84.9305
0.265625 	-0.9375 	0.5 	84.8642
0.28125 	-0.9375 	0.5 	84.8184
0.296875 	-0.9375 	0.5 	84.8206
0.3125 	-0.9375 	0.5 	84.8988
0.328125 	-0.9375 	0.5 	84.8874
0.34375 	-0.9375 	0.5 	84.9523
0.359375 	-0.9375 	0.5 	85.0112
0.375 	-0.9375 	0.5 	85.045
0.390625 	-0.9375 	0.5 	85.115
0.40625 	-0.9375 	0.5 	85.1807
0.421875 	-0.9375 	0.5 	85.345
0.4375 	-0.9375 	0.5 	85.4265
0.453125 	-0.9375 	0.5 	85.5434
0.46875 	-0.9375 	0.5 	85.7034
0.484375 	-0.9375 	0.5 	85.9075
0.5 	-0.9375 	0.5 	86.0535
0.515625 	-0.9375 	0.5 	86.1745
0.53125 	-0.9375 	0.5 	86.3873
0.546875 	-0.9375 	0.5 	86.5567
0.5625 	-0.9375 	0.5 	86.8294
0.578125 	-0.9375 	0.5 	87.0459
0.59375 	-0.9375 	0.5 	87.154
0.609375 	-0.9375 	0.5 	87.3678
0.625 	-0.9375 	0.5 	87.626
0.640625 	-0.9375 	0.5 	87.8652
0.65625 	-0.9375 	0.5 	88.1029
0.671875 	-0.9375 	0.5 	88.3433
0.6875 	-0.9375 	0.5 	88.5971
0.703125 	-0.9375 	0.5 	88.8071
0.71875 	-0.9375 	0.5 	89.0328
0.734375 	-0.9375 	0.5 	89.29
0.75 	-0.9375 	0.5 	89.5077
0.765625 	-0.9375 	0.5 	89.7093
0.78125 	-0.9375 	0.5 	89.9644
0.796875 	-0.9375 	0.5 	90.1749
0.8125 	-0.9375 	0.5 	90.4211
0.828125 	-0.9375 	0.5 	90.6529
0.84375 	-0.9375 	0.5 	90.8686
0.859375 	-0.9375 	0.5 	91.0843
0.875 	-0.9375 	0.5 	91.2969
0.890625 	-0.9375 	0.5 	91.506
0.90625 	-0.9375 	0.5 	91.6964
0.921875 	-0.9375 	0.5 	91.8462
0.9375 	-0.9375 	0.5 	92.0309
0.953125 	-0.9375 	0.5 	92.1772
0.96875 	-0.9375 	0.5 	92.3524
0.984375 	-0.9375 	0.5 	92.5341
1 	-0.9375 	0.5 	92.703
1.01562 	-0.9375 	0.5 	92.8393
1.03125 	-0.9375 	0.5 	92.9703
1.04688 	-0.9375 	0.5 	93.1095
1.0625 	-0.9375 	0.5 	93.2136
1.07812 	-0.9375 	0.5 	93.3187
1.09375 	-0.9375 	0.5 	93.4469
1.10938 	-0.9375 	0.5 	93.5337
1.125 	-0.9375 	0.5 	93.5639
1.14062 	-0.9375 	0.5 	93.6965
1.15625 	-0.9375 	0.5 	93.7768
1.17188 	-0.9375 	0.5 	93.8409
1.1875 	-0.9375 	0.5 	93.9031
1.20312 	-0.9375 	0.5 	93.9678
1.21875 	-0.9375 	0.5 	94.0285
1.23438 	-0.9375 	0.5 	94.0275
1.25 	-0.9375 	0.5 	94.0604
1.26562 	-0.9375 	0.5 	94.0768
1.28125 	-0.9375 	0.5 	94.1066
1.29688 	-0.9375 	0.5 	94.1143
1.3125 	-0.9375 	0.5 	94.1325
1.32812 	-0.9375 	0.5 	94.1267
1.34375 	-0.9375 	0.5 	94.1263
1.35938 	-0.9375 	0.5 	94.1332
1.375 	-0.9375 	0.5 	94.1233
1.39062 	-0.9375 	0.5 	94.1003
1.40625 	-0.9375 	0.5 	94.0777
1.42188 	-0.9375 	0.5 	94.0552
1.4375 	-0.9375 	0.5 	94.0316
1.45312 	-0.9375 	0.5 	93.9955
1.46875 	-0.9375 	0.5 	93.9594
1.48438 	-0.9375 	0.5 	93.9239
-0.5 	-0.921875 	0.5 	92.233
-0.484375 	-0.921875 	0.5 	92.1559
-0.46875 	-0.921875 	0.5 	92.1115
-0.453125 	-0.921875 	0.5 	92.0163
-0.4375 	-0.921875 	0.5 	91.8847
-0.421875 	-0.921875 	0.5 	91.7773
-0.40625 	-0.921875 	0.5 	91.6697
-0.390625 	-0.921875 	0.5 	91.5304
-0.375 	-0.921875 	0.5 	91.3898
-0.359375 	-0.921875 	0.5 	91.2818
-0.34375 	-0.921875 	0.5 	91.1281
-0.328125 	-0.921875 	0.5 	90.9807
-0.3125 	-0.921875 	0.5 	90.842
-0.296875 	-0.921875 	0.5 	90.67
-0.28125 	-0.921875 	0.5 	90.4962
-0.265625 	-0.921875 	0.5 	90.3296
-0.25 	-0.921875 	0.5 	90.1434
-0.234375 	-0.921875 	0.5 	89.9742
-0.21875 	-0.921875 	0.5 	89.7884
-0.203125 	-0.921875 	0.5 	89.5467
-0.1875 	-0.921875 	0.5 	89.3645
-0.171875 	-0.921875 	0.5 	89.1781
-0.15625 	-0.921875 	0.5 	88.9797
-0.140625 	-0.921875 	0.5 	88.7599
-0.125 	-0.921875 	0.5 	88.5224
-0.109375 	-0.921875 	0.5 	88.3255
-0.09375 	-0.921875 	0.5 	88.1167
-0.078125 	-0.921875 	0.5 	87.9009
-0.0625 	-0.921875 	0.5 	87.7002
-0.046875 	-0.921875 	0.5 	87.454
-0.03125 	-0.921875 	0.5 	87.2521
-0.015625 	-0.921875 	0.5 	87.0564
0 	-0.921875 	0.5 	86.8584
0.015625 	-0.921875 	0.5 	86.6913
0.03125 	-0.921875 	0.5 	86.4877
0.046875 	-0.921875 	0.5 	86.2497
0.0625 	-0.921875 	0.5 	86.0696
0.078125 	-0.921875 	0.5 	85.8962
0.09375 	-0.921875 	0.5 	85.7505
0.109375 	-0.921875 	0.5 	85.5765
0.125 	-0.921875 	0.5 	85.4423
0.140625 	-0.921875 	0.5 	85.3084
0.15625 	-0.921875 	0.5 	85.1721
0.171875 	-0.921875 	0.5 	85.047
0.1875 	-0.921875 	0.5 	84.9286
0.203125 	-0.921875 	0.5 	84.8473
0.21875 	-0.921875 	0.5 	84.728
0.234375 	-0.921875 	0.5 	84.711
0.25 	-0.921875 	0.5 	84.6805
0.265625 	-0.921875 	0.5 	84.6126
0.28125 	-0.921875 	0.5 	84.5727
0.296875 	-0.921875 	0.5 	84.5433
0.3125 	-0.921875 	0.5 	84.6421
0.328125 	-0.921875 	0.5 	84.6243
0.34375 	-0.921875 	0.5 	84.6693
0.359375 	-0.921875 	0.5 	84.7538
0.375 	-0.921875 	0.5 	84.7534
0.390625 	-0.921875 	0.5 	84.8496
0.40625 	-0.921875 	0.5 	84.9231
0.421875 	-0.921875 	0.5 	85.0441
0.4375 	-0.921875 	0.5 	85.2101
0.453125 	-0.921875 	0.5 	85.3428
0.46875 	-0.921875 	0.5 	85.4986
0.484375 	-0.921875 	0.5 	85.6944
0.5 	-0.921875 	0.5 	85.8294
0.515625 	-0.921875 	0.5 	86.0192
0.53125 	-0.921875 	0.5 	86.2104
0.546875 	-0.921875 	0.5 	86.4093
0.5625 	-0.921875 	0.5 	86.7126
0.578125 	-0.921875 	0.5 	86.9165
0.59375 	-0.921875 	0.5 	87.0291
0.609375 	-0.921875 	0.5 	87.21
0.625 	-0.921875 	0.5 	87.5257
0.640625 	-0.921875 	0.5 	87.7727
0.65625 	-0.921875 	0.5 	88.0251
0.671875 	-0.921875 	0.5 	88.2783
0.6875 	-0.921875 	0.5 	88.5233
0.703125 	-0.921875 	0.5 	88.7477
0.71875 	-0.921875 	0.5 	89.0008
0.734375 	-0.921875 	0.5 	89.2376
0.75 	-0.921875 	0.5 	89.5305
0.765625 	-0.921875 	0.5 	89.764
0.78125 	-0.921875 	0.5 	89.9935
0.796875 	-0.921875 	0.5 	90.2212
0.8125 	-0.921875 	0.5 	90.4633
0.828125 	-0.921875 	0.5 	90.7066
0.84375 	-0.921875 	0.5 	90.9335
0.859375 	-0.921875 	0.5 	91.14
0.875 	-0.921875 	0.5 	91.3804
0.890625 	-0.921875 	0.5 	91.5861
0.90625 	-0.921875 	0.5 	91.79
0.921875 	-0.921875 	0.5 	91.9618
0.9375 	-0.921875 	0.5 	92.1332
0.953125 	-0.921875 	0.5 	92.3108
0.96875 	-0.921875 	0.5 	92.4896
0.984375 	-0.921875 	0.5 	92.674
1 	-0.921875 	0.5 	92.8367
1.01562 	-0.921875 	0.5 	92.9723
1.03125 	-0.921875 	0.5 	93.1082
1.04688 	-0.921875 	0.5 	93.2118
1.0625 	-0.921875 	0.5 	93.3602
1.07812 	-0.921875 	0.5 	93.4998
1.09375 	-0.921875 	0.5 	93.5991
1.10938 	-0.921875 	0.5 	93.7171
1.125 	-0.921875 	0.5 	93.7856
1.14062 	-0.921875 	0.5 	93.8484
1.15625 	-0.921875 	0.5 	93.9343
1.17188 	-0.921875 	0.5 	93.9516
1.1875 	-0.921875 	0.5 	94.0547
1.20312 	-0.921875 	0.5 	94.124
1.21875 	-0.921875 	0.5 	94.1477
1.23438 	-0.921875 	0.5 	94.1822
1.25 	-0.921875 	0.5 	94.2075
1.26562 	-0.921875 	0.5 	94.2022
1.28125 	-0.921875 	0.5 	94.2632
1.29688 	-0.921875 	0.5 	94.2557
1.3125 	-0.921875 	0.5 	94.2576
1.32812 	-0.921875 	0.5 	94.2593
1.34375 	-0.921875 	0.5 	94.2674
1.35938 	-0.921875 	0.5 	94.2812
1.375 	-0.921875 	0.5 	94.2609
1.39062 	-0.921875 	0.5 	94.2308
1.40625 	-0.921875 	0.5 	94.2089
1.42188 	-0.921875 	0.5 	94.1915
1.4375 	-0.921875 	0.5 	94.1565
1.45312 	-0.921875 	0.5 	94.1048
1.46875 	-0.921875 	0.5 	94.074
1.48438 	-0.921875 	0.5 	94.0379
-0.5 	-0.90625 	0.5 	92.3563
-0.484375 	-0.90625 	0.5 	92.2568
-0.46875 	-0.90625 	0.5 	92.1607
-0.453125 	-0.90625 	0.5 	92.0807
-0.4375 	-0.90625 	0.5 	91.9978
-0.421875 	-0.90625 	0.5 	91.8695
-0.40625 	-0.90625 	0.5 	91.7924
-0.390625 	-0.90625 	0.5 	91.6758
-0.375 	-0.90625 	0.5 	91.5201
-0.359375 	-0.90625 	0.5 	91.3633
-0.34375 	-0.90625 	0.5 	91.2129
-0.328125 	-0.90625 	0.5 	91.0636
-0.3125 	-0.90625 	0.5 	90.9229
-0.296875 	-0.90625 	0.5 	90.7503
-0.28125 	-0.90625 	0.5 	90.5666
-0.265625 	-0.90625 	0.5 	90.3842
-0.25 	-0.90625 	0.5 	90.2123
-0.234375 	-0.90625 	0.5 	90.0528
-0.21875 	-0.90625 	0.5 	89.7515
-0.203125 	-0.90625 	0.5 	89.5849
-0.1875 	-0.90625 	0.5 	89.3274
-0.171875 	-0.90625 	0.5 	89.165
-0.15625 	-0.90625 	0.5 	88.9802
-0.140625 	-0.90625 	0.5 	88.7691
-0.125 	-0.90625 	0.5 	88.5178
-0.109375 	-0.90625 	0.5 	88.2809
-0.09375 	-0.90625 	0.5 	88.0494
-0.078125 	-0.90625 	0.5 	87.878
-0.0625 	-0.90625 	0.5 	87.6058
-0.046875 	-0.90625 	0.5 	87.3504
-0.03125 	-0.90625 	0.5 	87.1425
-0.015625 	-0.90625 	0.5 	86.9319
0 	-0.90625 	0.5 	86.7212
0.015625 	-0.90625 	0.5 	86.5265
0.03125 	-0.90625 	0.5 	86.3331
0.046875 	-0.90625 	0.5 	86.1223
0.0625 	-0.90625 	0.5 	85.8979
0.078125 	-0.90625 	0.5 	85.6928
0.09375 	-0.90625 	0.5 	85.4806
0.109375 	-0.90625 	0.5 	85.3393
0.125 	-0.90625 	0.5 	85.2127
0.140625 	-0.90625 	0.5 	85.075
0.15625 	-0.90625 	0.5 	84.9411
0.171875 	-0.90625 	0.5 	84.806
0.1875 	-0.90625 	0.5 	84.708
0.203125 	-0.90625 	0.5 	84.6036
0.21875 	-0.90625 	0.5 	84.5846
0.234375 	-0.90625 	0.5 	84.4338
0.25 	-0.90625 	0.5 	84.3574
0.265625 	-0.90625 	0.5 	84.332
0.28125 	-0.90625 	0.5 	84.3296
0.296875 	-0.90625 	0.5 	84.3407
0.3125 	-0.90625 	0.5 	84.3076
0.328125 	-0.90625 	0.5 	84.348
0.34375 	-0.90625 	0.5 	84.4472
0.359375 	-0.90625 	0.5 	84.4666
0.375 	-0.90625 	0.5 	84.4501
0.390625 	-0.90625 	0.5 	84.5742
0.40625 	-0.90625 	0.5 	84.6932
0.421875 	-0.90625 	0.5 	84.8037
0.4375 	-0.90625 	0.5 	84.9544
0.453125 	-0.90625 	0.5 	85.1479
0.46875 	-0.90625 	0.5 	85.301
0.484375 	-0.90625 	0.5 	85.4555
0.5 	-0.90625 	0.5 	85.6237
0.515625 	-0.90625 	0.5 	85.8153
0.53125 	-0.90625 	0.5 	86.0175
0.546875 	-0.90625 	0.5 	86.2274
0.5625 	-0.90625 	0.5 	86.4534
0.578125 	-0.90625 	0.5 	86.6956
0.59375 	-0.90625 	0.5 	86.932
0.609375 	-0.90625 	0.5 	87.1687
0.625 	-0.90625 	0.5 	87.4058
0.640625 	-0.90625 	0.5 	87.6948
0.65625 	-0.90625 	0.5 	87.9293
0.671875 	-0.90625 	0.5 	88.1853
0.6875 	-0.90625 	0.5 	88.4404
0.703125 	-0.90625 	0.5 	88.7203
0.71875 	-0.90625 	0.5 	88.9547
0.734375 	-0.90625 	0.5 	89.2597
0.75 	-0.90625 	0.5 	89.5009
0.765625 	-0.90625 	0.5 	89.7473
0.78125 	-0.90625 	0.5 	90.0253
0.796875 	-0.90625 	0.5 	90.2761
0.8125 	-0.90625 	0.5 	90.5184
0.828125 	-0.90625 	0.5 	90.7523
0.84375 	-0.90625 	0.5 	90.976
0.859375 	-0.90625 	0.5 	91.2136
0.875 	-0.90625 	0.5 	91.463
0.890625 	-0.90625 	0.5 	91.6721
0.90625 	-0.90625 	0.5 	91.8464
0.921875 	-0.90625 	0.5 	92.0835
0.9375 	-0.90625 	0.5 	92.2581
0.953125 	-0.90625 	0.5 	92.4915
0.96875 	-0.90625 	0.5 	92.6573
0.984375 	-0.90625 	0.5 	92.8564
1 	-0.90625 	0.5 	93.0047
1.01562 	-0.90625 	0.5 	93.1195
1.03125 	-0.90625 	0.5 	93.2125
1.04688 	-0.90625 	0.5 	93.376
1.0625 	-0.90625 	0.5 	93.5151
1.07812 	-0.90625 	0.5 	93.6396
1.09375 	-0.90625 	0.5 	93.7527
1.10938 	-0.90625 	0.5 	93.8486
1.125 	-0.90625 	0.5 	93.9787
1.14062 	-0.90625 	0.5 	94.0479
1.15625 	-0.90625 	0.5 	94.098
1.17188 	-0.90625 	0.5 	94.1567
1.1875 	-0.90625 	0.5 	94.2136
1.20312 	-0.90625 	0.5 	94.2634
1.21875 	-0.90625 	0.5 	94.3151
1.23438 	-0.90625 	0.5 	94.3509
1.25 	-0.90625 	0.5 	94.3421
1.26562 	-0.90625 	0.5 	94.4077
1.28125 	-0.90625 	0.5 	94.4196
1.29688 	-0.90625 	0.5 	94.4126
1.3125 	-0.90625 	0.5 	94.4114
1.32812 	-0.90625 	0.5 	94.4119
1.34375 	-0.90625 	0.5 	94.435
1.35938 	-0.90625 	0.5 	94.4276
1.375 	-0.90625 	0.5 	94.4085
1.39062 	-0.90625 	0.5 	94.3743
1.40625 	-0.90625 	0.5 	94.3531
1.42188 	-0.90625 	0.5 	94.2959
1.4375 	-0.90625 	0.5 	94.2865
1.45312 	-0.90625 	0.5 	94.1892
1.46875 	-0.90625 	0.5 	94.1763
1.48438 	-0.90625 	0.5 	94.1534
-0.5 	-0.890625 	0.5 	92.4826
-0.484375 	-0.890625 	0.5 	92.3499
-0.46875 	-0.890625 	0.5 	92.2858
-0.453125 	-0.890625 	0.5 	92.2166
-0.4375 	-0.890625 	0.5 	92.1389
-0.421875 	-0.890625 	0.5 	92.0058
-0.40625 	-0.890625 	0.5 	91.9094
-0.390625 	-0.890625 	0.5 	91.7688
-0.375 	-0.890625 	0.5 	91.6375
-0.359375 	-0.890625 	0.5 	91.4703
-0.34375 	-0.890625 	0.5 	91.31
-0.328125 	-0.890625 	0.5 	91.1593
-0.3125 	-0.890625 	0.5 	90.9994
-0.296875 	-0.890625 	0.5 	90.8005
-0.28125 	-0.890625 	0.5 	90.6298
-0.265625 	-0.890625 	0.5 	90.4483
-0.25 	-0.890625 	0.5 	90.2703
-0.234375 	-0.890625 	0.5 	90.092
-0.21875 	-0.890625 	0.5 	89.8353
-0.203125 	-0.890625 	0.5 	89.5944
-0.1875 	-0.890625 	0.5 	89.4027
-0.171875 	-0.890625 	0.5 	89.2186
-0.15625 	-0.890625 	0.5 	88.9705
-0.140625 	-0.890625 	0.5 	88.7459
-0.125 	-0.890625 	0.5 	88.5174
-0.109375 	-0.890625 	0.5 	88.2679
-0.09375 	-0.890625 	0.5 	88.0299
-0.078125 	-0.890625 	0.5 	87.7847
-0.0625 	-0.890625 	0.5 	87.5229
-0.046875 	-0.890625 	0.5 	87.2634
-0.03125 	-0.890625 	0.5 	87.0234
-0.015625 	-0.890625 	0.5 	86.7991
0 	-0.890625 	0.5 	86.5862
0.015625 	-0.890625 	0.5 	86.3991
0.03125 	-0.890625 	0.5 	86.17
0.046875 	-0.890625 	0.5 	85.9479
0.0625 	-0.890625 	0.5 	85.7516
0.078125 	-0.890625 	0.5 	85.5139
0.09375 	-0.890625 	0.5 	85.2663
0.109375 	-0.890625 	0.5 	85.0895
0.125 	-0.890625 	0.5 	84.9667
0.140625 	-0.890625 	0.5 	84.8358
0.15625 	-0.890625 	0.5 	84.7305
0.171875 	-0.890625 	0.5 	84.5443
0.1875 	-0.890625 	0.5 	84.4416
0.203125 	-0.890625 	0.5 	84.3317
0.21875 	-0.890625 	0.5 	84.2606
0.234375 	-0.890625 	0.5 	84.1654
0.25 	-0.890625 	0.5 	84.0759
0.265625 	-0.890625 	0.5 	84.0068
0.28125 	-0.890625 	0.5 	84.039
0.296875 	-0.890625 	0.5 	84.0528
0.3125 	-0.890625 	0.5 	84.0061
0.328125 	-0.890625 	0.5 	84.0663