-0.5 	-1 	0.5 	-10.0275
-0.484375 	-1 	0.5 	-9.56426
-0.46875 	-1 	0.5 	-9.02752
-0.453125 	-1 	0.5 	-8.50751
-0.4375 	-1 	0.5 	-8.12502
-0.421875 	-1 	0.5 	-7.62731
-0.40625 	-1 	0.5 	-7.21055
-0.390625 	-1 	0.5 	-6.85923
-0.375 	-1 	0.5 	-6.40979
-0.359375 	-1 	0.5 	-5.9088
-0.34375 	-1 	0.5 	-5.33798
-0.328125 	-1 	0.5 	-4.88397
-0.3125 	-1 	0.5 	-4.429
-0.296875 	-1 	0.5 	-4.0568
-0.28125 	-1 	0.5 	-3.66372
-0.265625 	-1 	0.5 	-3.14057
-0.25 	-1 	0.5 	-2.66875
-0.234375 	-1 	0.5 	-2.13952
-0.21875 	-1 	0.5 	-1.77389
-0.203125 	-1 	0.5 	-1.52351
-0.1875 	-1 	0.5 	-1.23662
-0.171875 	-1 	0.5 	-0.753255
-0.15625 	-1 	0.5 	-0.304997
-0.140625 	-1 	0.5 	0.146293
-0.125 	-1 	0.5 	0.449602
-0.109375 	-1 	0.5 	0.814336
-0.09375 	-1 	0.5 	1.23833
-0.078125 	-1 	0.5 	1.55855
-0.0625 	-1 	0.5 	1.94656
-0.046875 	-1 	0.5 	2.33795
-0.03125 	-1 	0.5 	2.59419
-0.015625 	-1 	0.5 	2.63385
0 	-1 	0.5 	3.05502
0.015625 	-1 	0.5 	3.39509
0.03125 	-1 	0.5 	3.75186
0.046875 	-1 	0.5 	4.12985
0.0625 	-1 	0.5 	4.50976
0.078125 	-1 	0.5 	4.81886
0.09375 	-1 	0.5 	4.99432
0.109375 	-1 	0.5 	5.2796
0.125 	-1 	0.5 	5.59133
0.140625 	-1 	0.5 	5.83624
0.15625 	-1 	0.5 	6.0824
0.171875 	-1 	0.5 	6.31683
0.1875 	-1 	0.5 	6.58649
0.203125 	-1 	0.5 	6.87263
0.21875 	-1 	0.5 	7.08845
0.234375 	-1 	0.5 	7.2685
0.25 	-1 	0.5 	7.49325
0.265625 	-1 	0.5 	7.68843
0.28125 	-1 	0.5 	7.95254
0.296875 	-1 	0.5 	8.01346
0.3125 	-1 	0.5 	8.04859
0.328125 	-1 	0.5 	8.34245
0.34375 	-1 	0.5 	8.65457
0.359375 	-1 	0.5 	8.85495
0.375 	-1 	0.5 	8.84891
0.390625 	-1 	0.5 	8.77975
0.40625 	-1 	0.5 	8.86985
0.421875 	-1 	0.5 	9.3352
0.4375 	-1 	0.5 	9.12835
0.453125 	-1 	0.5 	9.22796
0.46875 	-1 	0.5 	9.40381
0.484375 	-1 	0.5 	9.48808
0.5 	-1 	0.5 	9.43672
0.515625 	-1 	0.5 	9.47835
0.53125 	-1 	0.5 	9.49448
0.546875 	-1 	0.5 	9.52122
0.5625 	-1 	0.5 	9.49219
0.578125 	-1 	0.5 	9.35233
0.59375 	-1 	0.5 	9.29575
0.609375 	-1 	0.5 	9.2946
0.625 	-1 	0.5 	9.31949
0.640625 	-1 	0.5 	9.26402
0.65625 	-1 	0.5 	9.11334
0.671875 	-1 	0.5 	8.88692
0.6875 	-1 	0.5 	8.68599
0.703125 	-1 	0.5 	8.47997
0.71875 	-1 	0.5 	8.35989
0.734375 	-1 	0.5 	8.26224
0.75 	-1 	0.5 	8.2794
0.765625 	-1 	0.5 	8.13573
0.78125 	-1 	0.5 	7.83868
0.796875 	-1 	0.5 	7.49298
0.8125 	-1 	0.5 	7.11965
0.828125 	-1 	0.5 	6.90466
0.84375 	-1 	0.5 	6.69021
0.859375 	-1 	0.5 	6.3106
0.875 	-1 	0.5 	5.9964
0.890625 	-1 	0.5 	5.74729
0.90625 	-1 	0.5 	5.49224
0.921875 	-1 	0.5 	5.10245
0.9375 	-1 	0.5 	4.73062
0.953125 	-1 	0.5 	4.25362
0.96875 	-1 	0.5 	3.97128
0.984375 	-1 	0.5 	3.60427
1 	-1 	0.5 	3.14839
1.01562 	-1 	0.5 	2.76046
1.03125 	-1 	0.5 	2.34162
1.04688 	-1 	0.5 	1.95622
1.0625 	-1 	0.5 	1.53995
1.07812 	-1 	0.5 	1.075
1.09375 	-1 	0.5 	0.636915
1.10938 	-1 	0.5 	0.235868
1.125 	-1 	0.5 	-0.386676
1.14062 	-1 	0.5 	-0.909446
1.15625 	-1 	0.5 	-1.49809
1.17188 	-1 	0.5 	-2.0178
1.1875 	-1 	0.5 	-2.48468
1.20312 	-1 	0.5 	-2.96891
1.21875 	-1 	0.5 	-3.44755
1.23438 	-1 	0.5 	-3.94262
1.25 	-1 	0.5 	-4.42807
1.26562 	-1 	0.5 	-4.93319
1.28125 	-1 	0.5 	-5.4808
1.29688 	-1 	0.5 	-6.04371
1.3125 	-1 	0.5 	-6.68607
1.32812 	-1 	0.5 	-7.22592
1.34375 	-1 	0.5 	-7.74102
1.35938 	-1 	0.5 	-8.30833
1.375 	-1 	0.5 	-8.83412
1.39062 	-1 	0.5 	-9.37478
1.40625 	-1 	0.5 	-9.96194
1.42188 	-1 	0.5 	-10.5486
1.4375 	-1 	0.5 	-11.069
1.45312 	-1 	0.5 	-11.5692
1.46875 	-1 	0.5 	-12.0942
1.48438 	-1 	0.5 	-12.6851
-0.5 	-0.984375 	0.5 	-9.79072
-0.484375 	-0.984375 	0.5 	-9.39475
-0.46875 	-0.984375 	0.5 	-8.86574
-0.453125 	-0.984375 	0.5 	-8.32898
-0.4375 	-0.984375 	0.5 	-7.8738
-0.421875 	-0.984375 	0.5 	-7.41447
-0.40625 	-0.984375 	0.5 	-6.95514
-0.390625 	-0.984375 	0.5 	-6.53332
-0.375 	-0.984375 	0.5 	-6.06666
-0.359375 	-0.984375 	0.5 	-5.58543
-0.34375 	-0.984375 	0.5 	-5.07868
-0.328125 	-0.984375 	0.5 	-4.56707
-0.3125 	-0.984375 	0.5 	-4.15814
-0.296875 	-0.984375 	0.5 	-3.75282
-0.28125 	-0.984375 	0.5 	-3.3358
-0.265625 	-0.984375 	0.5 	-2.84687
-0.25 	-0.984375 	0.5 	-2.32313
-0.234375 	-0.984375 	0.5 	-1.86634
-0.21875 	-0.984375 	0.5 	-1.25123
-0.203125 	-0.984375 	0.5 	-1.1682
-0.1875 	-0.984375 	0.5 	-0.800203
-0.171875 	-0.984375 	0.5 	-0.326102
-0.15625 	-0.984375 	0.5 	0.131307
-0.140625 	-0.984375 	0.5 	0.568672
-0.125 	-0.984375 	0.5 	0.932457
-0.109375 	-0.984375 	0.5 	1.22371
-0.09375 	-0.984375 	0.5 	1.59748
-0.078125 	-0.984375 	0.5 	1.99044
-0.0625 	-0.984375 	0.5 	2.38322
-0.046875 	-0.984375 	0.5 	2.76751
-0.03125 	-0.984375 	0.5 	2.89838
-0.015625 	-0.984375 	0.5 	3.35259
0 	-0.984375 	0.5 	3.5046
0.015625 	-0.984375 	0.5 	3.93289
0.03125 	-0.984375 	0.5 	4.42749
0.046875 	-0.984375 	0.5 	4.68569
0.0625 	-0.984375 	0.5 	5.03032
0.078125 	-0.984375 	0.5 	5.28162
0.09375 	-0.984375 	0.5 	5.54504
0.109375 	-0.984375 	0.5 	5.87916
0.125 	-0.984375 	0.5 	6.14551
0.140625 	-0.984375 	0.5 	6.28076
0.15625 	-0.984375 	0.5 	6.50232
0.171875 	-0.984375 	0.5 	6.87319
0.1875 	-0.984375 	0.5 	7.21452
0.203125 	-0.984375 	0.5 	7.48697
0.21875 	-0.984375 	0.5 	7.67217
0.234375 	-0.984375 	0.5 	7.84861
0.25 	-0.984375 	0.5 	8.02135
0.265625 	-0.984375 	0.5 	8.21531
0.28125 	-0.984375 	0.5 	8.38193
0.296875 	-0.984375 	0.5 	8.54855
0.3125 	-0.984375 	0.5 	8.7872
0.328125 	-0.984375 	0.5 	9.04333
0.34375 	-0.984375 	0.5 	9.3314
0.359375 	-0.984375 	0.5 	9.40905
0.375 	-0.984375 	0.5 	9.44836
0.390625 	-0.984375 	0.5 	9.37476
0.40625 	-0.984375 	0.5 	9.56175
0.421875 	-0.984375 	0.5 	9.68689
0.4375 	-0.984375 	0.5 	9.81702
0.453125 	-0.984375 	0.5 	9.88033
0.46875 	-0.984375 	0.5 	10.0439
0.484375 	-0.984375 	0.5 	10.1051
0.5 	-0.984375 	0.5 	10.0822
0.515625 	-0.984375 	0.5 	10.1519
0.53125 	-0.984375 	0.5 	10.2081
0.546875 	-0.984375 	0.5 	10.1889
0.5625 	-0.984375 	0.5 	10.1626
0.578125 	-0.984375 	0.5 	10.0727
0.59375 	-0.984375 	0.5 	9.93848
0.609375 	-0.984375 	0.5 	9.89871
0.625 	-0.984375 	0.5 	9.93457
0.640625 	-0.984375 	0.5 	9.79671
0.65625 	-0.984375 	0.5 	9.81631
0.671875 	-0.984375 	0.5 	9.62265
0.6875 	-0.984375 	0.5 	9.29867
0.703125 	-0.984375 	0.5 	9.18316
0.71875 	-0.984375 	0.5 	9.02171
0.734375 	-0.984375 	0.5 	8.86328
0.75 	-0.984375 	0.5 	8.85669
0.765625 	-0.984375 	0.5 	8.74566
0.78125 	-0.984375 	0.5 	8.65251
0.796875 	-0.984375 	0.5 	8.15187
0.8125 	-0.984375 	0.5 	7.82605
0.828125 	-0.984375 	0.5 	7.54793
0.84375 	-0.984375 	0.5 	7.25111
0.859375 	-0.984375 	0.5 	6.96428
0.875 	-0.984375 	0.5 	6.65099
0.890625 	-0.984375 	0.5 	6.34096
0.90625 	-0.984375 	0.5 	6.07677
0.921875 	-0.984375 	0.5 	5.64065
0.9375 	-0.984375 	0.5 	5.25485
0.953125 	-0.984375 	0.5 	4.86416
0.96875 	-0.984375 	0.5 	4.4039
0.984375 	-0.984375 	0.5 	4.12452
1 	-0.984375 	0.5 	3.66727
1.01562 	-0.984375 	0.5 	3.30973
1.03125 	-0.984375 	0.5 	2.91286
1.04688 	-0.984375 	0.5 	2.4408
1.0625 	-0.984375 	0.5 	1.96874
1.07812 	-0.984375 	0.5 	1.51279
1.09375 	-0.984375 	0.5 	1.16582
1.10938 	-0.984375 	0.5 	0.695977
1.125 	-0.984375 	0.5 	0.0930612
1.14062 	-0.984375 	0.5 	-0.502855
1.15625 	-0.984375 	0.5 	-1.06215
1.17188 	-0.984375 	0.5 	-1.62143
1.1875 	-0.984375 	0.5 	-2.14338
1.20312 	-0.984375 	0.5 	-2.6267
1.21875 	-0.984375 	0.5 	-3.11268
1.23438 	-0.984375 	0.5 	-3.59865
1.25 	-0.984375 	0.5 	-4.09124
1.26562 	-0.984375 	0.5 	-4.63817
1.28125 	-0.984375 	0.5 	-5.1905
1.29688 	-0.984375 	0.5 	-5.73584
1.3125 	-0.984375 	0.5 	-6.4096
1.32812 	-0.984375 	0.5 	-6.94694
1.34375 	-0.984375 	0.5 	-7.45443
1.35938 	-0.984375 	0.5 	-8.00418
1.375 	-0.984375 	0.5 	-8.6574
1.39062 	-0.984375 	0.5 	-9.19807
1.40625 	-0.984375 	0.5 	-9.75161
1.42188 	-0.984375 	0.5 	-10.3132
1.4375 	-0.984375 	0.5 	-10.8216
1.45312 	-0.984375 	0.5 	-11.3435
1.46875 	-0.984375 	0.5 	-11.9438
1.48438 	-0.984375 	0.5 	-12.4746
-0.5 	-0.96875 	0.5 	-9.56299
-0.484375 	-0.96875 	0.5 	-9.12213
-0.46875 	-0.96875 	0.5 	-8.60666
-0.453125 	-0.96875 	0.5 	-8.12072
-0.4375 	-0.96875 	0.5 	-7.57352
-0.421875 	-0.96875 	0.5 	-7.09773
-0.40625 	-0.96875 	0.5 	-6.64708
-0.390625 	-0.96875 	0.5 	-6.19579
-0.375 	-0.96875 	0.5 	-5.79461
-0.359375 	-0.96875 	0.5 	-5.31964
-0.34375 	-0.96875 	0.5 	-4.74916
-0.328125 	-0.96875 	0.5 	-4.24051
-0.3125 	-0.96875 	0.5 	-3.82932
-0.296875 	-0.96875 	0.5 	-3.42784
-0.28125 	-0.96875 	0.5 	-2.96856
-0.265625 	-0.96875 	0.5 	-2.47835
-0.25 	-0.96875 	0.5 	-2.04009
-0.234375 	-0.96875 	0.5 	-1.53726
-0.21875 	-0.96875 	0.5 	-1.07398
-0.203125 	-0.96875 	0.5 	-0.597292
-0.1875 	-0.96875 	0.5 	-0.268537
-0.171875 	-0.96875 	0.5 	0.113248
-0.15625 	-0.96875 	0.5 	0.618995
-0.140625 	-0.96875 	0.5 	0.944326
-0.125 	-0.96875 	0.5 	1.20351
-0.109375 	-0.96875 	0.5 	1.27379
-0.09375 	-0.96875 	0.5 	2.08856
-0.078125 	-0.96875 	0.5 	2.47557
-0.0625 	-0.96875 	0.5 	2.83516
-0.046875 	-0.96875 	0.5 	3.16872
-0.03125 	-0.96875 	0.5 	3.47669
-0.015625 	-0.96875 	0.5 	3.78467
0 	-0.96875 	0.5 	4.127
0.015625 	-0.96875 	0.5 	4.49805
0.03125 	-0.96875 	0.5 	4.87436
0.046875 	-0.96875 	0.5 	5.27915
0.0625 	-0.96875 	0.5 	5.52617
0.078125 	-0.96875 	0.5 	5.75614
0.09375 	-0.96875 	0.5 	6.08084
0.109375 	-0.96875 	0.5 	6.45124
0.125 	-0.96875 	0.5 	6.70146
0.140625 	-0.96875 	0.5 	6.90019
0.15625 	-0.96875 	0.5 	7.09455
0.171875 	-0.96875 	0.5 	7.44168
0.1875 	-0.96875 	0.5 	7.81946
0.203125 	-0.96875 	0.5 	8.0648
0.21875 	-0.96875 	0.5 	8.24088
0.234375 	-0.96875 	0.5 	8.409
0.25 	-0.96875 	0.5 	8.60355
0.265625 	-0.96875 	0.5 	8.70729
0.28125 	-0.96875 	0.5 	8.794
0.296875 	-0.96875 	0.5 	9.08592
0.3125 	-0.96875 	0.5 	9.24049
0.328125 	-0.96875 	0.5 	9.53616
0.34375 	-0.96875 	0.5 	9.83493
0.359375 	-0.96875 	0.5 	9.98435
0.375 	-0.96875 	0.5 	10.0409
0.390625 	-0.96875 	0.5 	10.1759
0.40625 	-0.96875 	0.5 	10.2577
0.421875 	-0.96875 	0.5 	10.3065
0.4375 	-0.96875 	0.5 	10.4283
0.453125 	-0.96875 	0.5 	10.5501
0.46875 	-0.96875 	0.5 	10.6147
0.484375 	-0.96875 	0.5 	10.6605
0.5 	-0.96875 	0.5 	10.7064
0.515625 	-0.96875 	0.5 	10.7276
0.53125 	-0.96875 	0.5 	10.7214
0.546875 	-0.96875 	0.5 	10.801
0.5625 	-0.96875 	0.5 	10.819
0.578125 	-0.96875 	0.5 	10.7624
0.59375 	-0.96875 	0.5 	10.6533
0.609375 	-0.96875 	0.5 	10.5593
0.625 	-0.96875 	0.5 	10.5384
0.640625 	-0.96875 	0.5 	10.6048
0.65625 	-0.96875 	0.5 	10.4983
0.671875 	-0.96875 	0.5 	10.1008
0.6875 	-0.96875 	0.5 	10.1004
0.703125 	-0.96875 	0.5 	9.89912
0.71875 	-0.96875 	0.5 	9.76325
0.734375 	-0.96875 	0.5 	9.55631
0.75 	-0.96875 	0.5 	9.43398
0.765625 	-0.96875 	0.5 	9.39871
0.78125 	-0.96875 	0.5 	9.34859
0.796875 	-0.96875 	0.5 	8.85641
0.8125 	-0.96875 	0.5 	8.54545
0.828125 	-0.96875 	0.5 	8.18141
0.84375 	-0.96875 	0.5 	7.96299
0.859375 	-0.96875 	0.5 	7.65794
0.875 	-0.96875 	0.5 	7.29171
0.890625 	-0.96875 	0.5 	6.95786
0.90625 	-0.96875 	0.5 	6.60943
0.921875 	-0.96875 	0.5 	6.2236
0.9375 	-0.96875 	0.5 	5.85109
0.953125 	-0.96875 	0.5 	5.58908
0.96875 	-0.96875 	0.5 	5.09992
0.984375 	-0.96875 	0.5 	4.65474
1 	-0.96875 	0.5 	4.29861
1.01562 	-0.96875 	0.5 	3.97016
1.03125 	-0.96875 	0.5 	3.51815
1.04688 	-0.96875 	0.5 	3.03875
1.0625 	-0.96875 	0.5 	2.54662
1.07812 	-0.96875 	0.5 	1.98363
1.09375 	-0.96875 	0.5 	1.43982
1.10938 	-0.96875 	0.5 	0.923643
1.125 	-0.96875 	0.5 	0.424813
1.14062 	-0.96875 	0.5 	-0.0173404
1.15625 	-0.96875 	0.5 	-0.490783
1.17188 	-0.96875 	0.5 	-1.05624
1.1875 	-0.96875 	0.5 	-1.77404
1.20312 	-0.96875 	0.5 	-2.35221
1.21875 	-0.96875 	0.5 	-2.83733
1.23438 	-0.96875 	0.5 	-3.29155
1.25 	-0.96875 	0.5 	-3.70967
1.26562 	-0.96875 	0.5 	-4.3113
1.28125 	-0.96875 	0.5 	-4.89371
1.29688 	-0.96875 	0.5 	-5.44419
1.3125 	-0.96875 	0.5 	-6.05381
1.32812 	-0.96875 	0.5 	-6.55914
1.34375 	-0.96875 	0.5 	-7.08093
1.35938 	-0.96875 	0.5 	-7.76069
1.375 	-0.96875 	0.5 	-8.14877
1.39062 	-0.96875 	0.5 	-8.8427
1.40625 	-0.96875 	0.5 	-9.5371
1.42188 	-0.96875 	0.5 	-10.1079
1.4375 	-0.96875 	0.5 	-10.634
1.45312 	-0.96875 	0.5 	-11.1641
1.46875 	-0.96875 	0.5 	-11.7935
1.48438 	-0.96875 	0.5 	-12.3135
-0.5 	-0.953125 	0.5 	-9.3268
-0.484375 	-0.953125 	0.5 	-8.86514
-0.46875 	-0.953125 	0.5 	-8.39578
-0.453125 	-0.953125 	0.5 	-7.85862
-0.4375 	-0.953125 	0.5 	-7.28085
-0.421875 	-0.953125 	0.5 	-6.75877
-0.40625 	-0.953125 	0.5 	-6.33386
-0.390625 	-0.953125 	0.5 	-5.84829
-0.375 	-0.953125 	0.5 	-5.43381
-0.359375 	-0.953125 	0.5 	-4.94403
-0.34375 	-0.953125 	0.5 	-4.32903
-0.328125 	-0.953125 	0.5 	-3.91923
-0.3125 	-0.953125 	0.5 	-3.45036
-0.296875 	-0.953125 	0.5 	-3.02564
-0.28125 	-0.953125 	0.5 	-2.60045
-0.265625 	-0.953125 	0.5 	-2.11131
-0.25 	-0.953125 	0.5 	-1.66146
-0.234375 	-0.953125 	0.5 	-1.21161
-0.21875 	-0.953125 	0.5 	-0.768429
-0.203125 	-0.953125 	0.5 	-0.501784
-0.1875 	-0.953125 	0.5 	-0.109078
-0.171875 	-0.953125 	0.5 	0.645901
-0.15625 	-0.953125 	0.5 	0.977731
-0.140625 	-0.953125 	0.5 	1.44582
-0.125 	-0.953125 	0.5 	1.18153
-0.109375 	-0.953125 	0.5 	2.13079
-0.09375 	-0.953125 	0.5 	2.56227
-0.078125 	-0.953125 	0.5 	2.93621
-0.0625 	-0.953125 	0.5 	3.32179
-0.046875 	-0.953125 	0.5 	3.54381
-0.03125 	-0.953125 	0.5 	3.89668
-0.015625 	-0.953125 	0.5 	4.23454
0 	-0.953125 	0.5 	4.69202
0.015625 	-0.953125 	0.5 	5.10426
0.03125 	-0.953125 	0.5 	5.45479
0.046875 	-0.953125 	0.5 	5.72282
0.0625 	-0.953125 	0.5 	5.95853
0.078125 	-0.953125 	0.5 	6.26542
0.09375 	-0.953125 	0.5 	6.67824
0.109375 	-0.953125 	0.5 	6.89226
0.125 	-0.953125 	0.5 	7.16817
0.140625 	-0.953125 	0.5 	7.38893
0.15625 	-0.953125 	0.5 	7.75543
0.171875 	-0.953125 	0.5 	7.98603
0.1875 	-0.953125 	0.5 	8.31696
0.203125 	-0.953125 	0.5 	8.60215
0.21875 	-0.953125 	0.5 	8.82699
0.234375 	-0.953125 	0.5 	9.01193
0.25 	-0.953125 	0.5 	9.16101
0.265625 	-0.953125 	0.5 	9.16843
0.28125 	-0.953125 	0.5 	9.43793
0.296875 	-0.953125 	0.5 	9.63314
0.3125 	-0.953125 	0.5 	9.94852
0.328125 	-0.953125 	0.5 	10.1953
0.34375 	-0.953125 	0.5 	10.3873
0.359375 	-0.953125 	0.5 	10.5088
0.375 	-0.953125 	0.5 	10.8549
0.390625 	-0.953125 	0.5 	10.8485
0.40625 	-0.953125 	0.5 	10.9247
0.421875 	-0.953125 	0.5 	11.0084
0.4375 	-0.953125 	0.5 	11.1369
0.453125 	-0.953125 	0.5 	11.2664
0.46875 	-0.953125 	0.5 	11.2185
0.484375 	-0.953125 	0.5 	11.3573
0.5 	-0.953125 	0.5 	11.3832
0.515625 	-0.953125 	0.5 	11.3436
0.53125 	-0.953125 	0.5 	11.4194
0.546875 	-0.953125 	0.5 	11.4217
0.5625 	-0.953125 	0.5 	11.4674
0.578125 	-0.953125 	0.5 	11.4832
0.59375 	-0.953125 	0.5 	11.4056
0.609375 	-0.953125 	0.5 	11.3125
0.625 	-0.953125 	0.5 	11.4249
0.640625 	-0.953125 	0.5 	11.3178
0.65625 	-0.953125 	0.5 	11.1683
0.671875 	-0.953125 	0.5 	10.9573
0.6875 	-0.953125 	0.5 	10.7464
0.703125 	-0.953125 	0.5 	10.6156
0.71875 	-0.953125 	0.5 	10.4956
0.734375 	-0.953125 	0.5 	10.3241
0.75 	-0.953125 	0.5 	10.0537
0.765625 	-0.953125 	0.5 	9.79687
0.78125 	-0.953125 	0.5 	9.61305
0.796875 	-0.953125 	0.5 	9.512
0.8125 	-0.953125 	0.5 	9.15197
0.828125 	-0.953125 	0.5 	8.78663
0.84375 	-0.953125 	0.5 	8.5639
0.859375 	-0.953125 	0.5 	8.30746
0.875 	-0.953125 	0.5 	7.86779
0.890625 	-0.953125 	0.5 	7.66538
0.90625 	-0.953125 	0.5 	7.23492
0.921875 	-0.953125 	0.5 	6.87233
0.9375 	-0.953125 	0.5 	6.5131
0.953125 	-0.953125 	0.5 	6.2668
0.96875 	-0.953125 	0.5 	5.78903
0.984375 	-0.953125 	0.5 	5.31914
1 	-0.953125 	0.5 	4.81754
1.01562 	-0.953125 	0.5 	4.43764
1.03125 	-0.953125 	0.5 	4.04088
1.04688 	-0.953125 	0.5 	3.59433
1.0625 	-0.953125 	0.5 	2.96917
1.07812 	-0.953125 	0.5 	2.5496
1.09375 	-0.953125 	0.5 	1.80882
1.10938 	-0.953125 	0.5 	1.40523
1.125 	-0.953125 	0.5 	0.926119
1.14062 	-0.953125 	0.5 	0.470562
1.15625 	-0.953125 	0.5 	-0.0556417
1.17188 	-0.953125 	0.5 	-0.591607
1.1875 	-0.953125 	0.5 	-1.42204
1.20312 	-0.953125 	0.5 	-1.91469
1.21875 	-0.953125 	0.5 	-2.48354
1.23438 	-0.953125 	0.5 	-2.84075
1.25 	-0.953125 	0.5 	-3.31753
1.26562 	-0.953125 	0.5 	-3.77798
1.28125 	-0.953125 	0.5 	-4.39422
1.29688 	-0.953125 	0.5 	-5.06703
1.3125 	-0.953125 	0.5 	-5.72066
1.32812 	-0.953125 	0.5 	-6.28309
1.34375 	-0.953125 	0.5 	-6.8459
1.35938 	-0.953125 	0.5 	-7.52224
1.375 	-0.953125 	0.5 	-8.06094
1.39062 	-0.953125 	0.5 	-8.7629
1.40625 	-0.953125 	0.5 	-9.38955
1.42188 	-0.953125 	0.5 	-9.99916
1.4375 	-0.953125 	0.5 	-10.5314
1.45312 	-0.953125 	0.5 	-11.0596
1.46875 	-0.953125 	0.5 	-11.639
1.48438 	-0.953125 	0.5 	-12.1913
-0.5 	-0.9375 	0.5 	-8.99175
-0.484375 	-0.9375 	0.5 	-8.60925
-0.46875 	-0.9375 	0.5 	-8.12785
-0.453125 	-0.9375 	0.5 	-7.59822
-0.4375 	-0.9375 	0.5 	-7.01746
-0.421875 	-0.9375 	0.5 	-6.4707
-0.40625 	-0.9375 	0.5 	-5.9932
-0.390625 	-0.9375 	0.5 	-5.54971
-0.375 	-0.9375 	0.5 	-5.11379
-0.359375 	-0.9375 	0.5 	-4.58562
-0.34375 	-0.9375 	0.5 	-3.99686
-0.328125 	-0.9375 	0.5 	-3.59959
-0.3125 	-0.9375 	0.5 	-3.11393
-0.296875 	-0.9375 	0.5 	-2.67447
-0.28125 	-0.9375 	0.5 	-2.23448
-0.265625 	-0.9375 	0.5 	-1.75104
-0.25 	-0.9375 	0.5 	-1.27214
-0.234375 	-0.9375 	0.5 	-0.81144
-0.21875 	-0.9375 	0.5 	-0.361026
-0.203125 	-0.9375 	0.5 	0.0571225
-0.1875 	-0.9375 	0.5 	0.45428
-0.171875 	-0.9375 	0.5 	0.974739
-0.15625 	-0.9375 	0.5 	1.50842
-0.140625 	-0.9375 	0.5 	1.8203
-0.125 	-0.9375 	0.5 	2.24509
-0.109375 	-0.9375 	0.5 	2.79877
-0.09375 	-0.9375 	0.5 	3.04065
-0.078125 	-0.9375 	0.5 	3.3822
-0.0625 	-0.9375 	0.5 	3.77385
-0.046875 	-0.9375 	0.5 	4.00013
-0.03125 	-0.9375 	0.5 	4.29978
-0.015625 	-0.9375 	0.5 	4.70848
0 	-0.9375 	0.5 	5.23016
0.015625 	-0.9375 	0.5 	5.67883
0.03125 	-0.9375 	0.5 	5.99709
0.046875 	-0.9375 	0.5 	6.18791
0.0625 	-0.9375 	0.5 	6.32381
0.078125 	-0.9375 	0.5 	6.79708
0.09375 	-0.9375 	0.5 	7.10461
0.109375 	-0.9375 	0.5 	7.44754
0.125 	-0.9375 	0.5 	7.74605
0.140625 	-0.9375 	0.5 	8.02894
0.15625 	-0.9375 	0.5 	8.39811
0.171875 	-0.9375 	0.5 	8.61441
0.1875 	-0.9375 	0.5 	8.92603
0.203125 	-0.9375 	0.5 	9.32321
0.21875 	-0.9375 	0.5 	9.4842
0.234375 	-0.9375 	0.5 	9.40336
0.25 	-0.9375 	0.5 	9.76225
0.265625 	-0.9375 	0.5 	9.99095
0.28125 	-0.9375 	0.5 	10.1638
0.296875 	-0.9375 	0.5 	10.7478
0.3125 	-0.9375 	0.5 	10.6688
0.328125 	-0.9375 	0.5 	10.7831
0.34375 	-0.9375 	0.5 	10.9113
0.359375 	-0.9375 	0.5 	11.1495
0.375 	-0.9375 	0.5 	11.4601
0.390625 	-0.9375 	0.5 	11.4713
0.40625 	-0.9375 	0.5 	11.6275
0.421875 	-0.9375 	0.5 	11.8121
0.4375 	-0.9375 	0.5 	11.8708
0.453125 	-0.9375 	0.5 	11.9946
0.46875 	-0.9375 	0.5 	12.0289
0.484375 	-0.9375 	0.5 	12.0726
0.5 	-0.9375 	0.5 	12.0914
0.515625 	-0.9375 	0.5 	12.0947
0.53125 	-0.9375 	0.5 	12.001
0.546875 	-0.9375 	0.5 	12.0712
0.5625 	-0.9375 	0.5 	12.1488
0.578125 	-0.9375 	0.5 	12.1561
0.59375 	-0.9375 	0.5 	12.1633
0.609375 	-0.9375 	0.5 	12.0953
0.625 	-0.9375 	0.5 	12.0266
0.640625 	-0.9375 	0.5 	11.9496
0.65625 	-0.9375 	0.5 	11.7256
0.671875 	-0.9375 	0.5 	11.6437
0.6875 	-0.9375 	0.5 	11.3672
0.703125 	-0.9375 	0.5 	11.424
0.71875 	-0.9375 	0.5 	11.2296
0.734375 	-0.9375 	0.5 	11.0177
0.75 	-0.9375 	0.5 	10.7479
0.765625 	-0.9375 	0.5 	10.3957
0.78125 	-0.9375 	0.5 	10.2494
0.796875 	-0.9375 	0.5 	10.1408
0.8125 	-0.9375 	0.5 	9.99596
0.828125 	-0.9375 	0.5 	9.41852
0.84375 	-0.9375 	0.5 	9.10774
0.859375 	-0.9375 	0.5 	8.91204
0.875 	-0.9375 	0.5 	8.77878
0.890625 	-0.9375 	0.5 	8.32252
0.90625 	-0.9375 	0.5 	7.84147
0.921875 	-0.9375 	0.5 	7.50384
0.9375 	-0.9375 	0.5 	7.17512
0.953125 	-0.9375 	0.5 	6.78499
0.96875 	-0.9375 	0.5 	6.39626
0.984375 	-0.9375 	0.5 	5.86811
1 	-0.9375 	0.5 	5.3875
1.01562 	-0.9375 	0.5 	4.77089
1.03125 	-0.9375 	0.5 	4.45936
1.04688 	-0.9375 	0.5 	4.23149
1.0625 	-0.9375 	0.5 	3.57574
1.07812 	-0.9375 	0.5 	3.14362
1.09375 	-0.9375 	0.5 	2.07853
1.10938 	-0.9375 	0.5 	1.83601
1.125 	-0.9375 	0.5 	1.42742
1.14062 	-0.9375 	0.5 	0.952352
1.15625 	-0.9375 	0.5 	0.423735
1.17188 	-0.9375 	0.5 	-0.158933
1.1875 	-0.9375 	0.5 	-0.923726
1.20312 	-0.9375 	0.5 	-1.49337
1.21875 	-0.9375 	0.5 	-2.00009
1.23438 	-0.9375 	0.5 	-2.45018
1.25 	-0.9375 	0.5 	-2.92216
1.26562 	-0.9375 	0.5 	-3.43989
1.28125 	-0.9375 	0.5 	-4.11514
1.29688 	-0.9375 	0.5 	-4.77701
1.3125 	-0.9375 	0.5 	-5.54214
1.32812 	-0.9375 	0.5 	-6.19069
1.34375 	-0.9375 	0.5 	-6.76987
1.35938 	-0.9375 	0.5 	-7.28296
1.375 	-0.9375 	0.5 	-7.94997
1.39062 	-0.9375 	0.5 	-8.6962
1.40625 	-0.9375 	0.5 	-9.18483
1.42188 	-0.9375 	0.5 	-9.82481
1.4375 	-0.9375 	0.5 	-10.4204
1.45312 	-0.9375 	0.5 	-10.9513
1.46875 	-0.9375 	0.5 	-11.4896
1.48438 	-0.9375 	0.5 	-11.9776
-0.5 	-0.921875 	0.5 	-8.64328
-0.484375 	-0.921875 	0.5 	-8.28136
-0.46875 	-0.921875 	0.5 	-7.86129
-0.453125 	-0.921875 	0.5 	-7.29876
-0.4375 	-0.921875 	0.5 	-6.72695
-0.421875 	-0.921875 	0.5 	-6.18693
-0.40625 	-0.921875 	0.5 	-5.83708
-0.390625 	-0.921875 	0.5 	-5.4699
-0.375 	-0.921875 	0.5 	-4.85834
-0.359375 	-0.921875 	0.5 	-4.30685
-0.34375 	-0.921875 	0.5 	-3.79141
-0.328125 	-0.921875 	0.5 	-3.25811
-0.3125 	-0.921875 	0.5 	-2.81729
-0.296875 	-0.921875 	0.5 	-2.34665
-0.28125 	-0.921875 	0.5 	-1.8486
-0.265625 	-0.921875 	0.5 	-1.35474
-0.25 	-0.921875 	0.5 	-0.868487
-0.234375 	-0.921875 	0.5 	-0.395621
-0.21875 	-0.921875 	0.5 	0.0464094
-0.203125 	-0.921875 	0.5 	0.437384
-0.1875 	-0.921875 	0.5 	0.883322
-0.171875 	-0.921875 	0.5 	1.33092
-0.15625 	-0.921875 	0.5 	1.68503
-0.140625 	-0.921875 	0.5 	2.02461
-0.125 	-0.921875 	0.5 	2.83267
-0.109375 	-0.921875 	0.5 	3.10483
-0.09375 	-0.921875 	0.5 	3.60323
-0.078125 	-0.921875 	0.5 	3.79849
-0.0625 	-0.921875 	0.5 	4.21759
-0.046875 	-0.921875 	0.5 	4.61647
-0.03125 	-0.921875 	0.5 	4.93411
-0.015625 	-0.921875 	0.5 	5.32014
0 	-0.921875 	0.5 	5.68783
0.015625 	-0.921875 	0.5 	6.13007
0.03125 	-0.921875 	0.5 	6.53262
0.046875 	-0.921875 	0.5 	6.80521
0.0625 	-0.921875 	0.5 	7.0554
0.078125 	-0.921875 	0.5 	7.33844
0.09375 	-0.921875 	0.5 	7.75078
0.109375 	-0.921875 	0.5 	8.05115
0.125 	-0.921875 	0.5 	8.35127
0.140625 	-0.921875 	0.5 	8.63771
0.15625 	-0.921875 	0.5 	8.91107
0.171875 	-0.921875 	0.5 	9.19205
0.1875 	-0.921875 	0.5 	9.45407
0.203125 	-0.921875 	0.5 	9.78355
0.21875 	-0.921875 	0.5 	10.1747
0.234375 	-0.921875 	0.5 	10.3523
0.25 	-0.921875 	0.5 	10.2631
0.265625 	-0.921875 	0.5 	10.4894
0.28125 	-0.921875 	0.5 	10.8398
0.296875 	-0.921875 	0.5 	11.0713
0.3125 	-0.921875 	0.5 	11.4359
0.328125 	-0.921875 	0.5 	11.4319
0.34375 	-0.921875 	0.5 	11.5823
0.359375 	-0.921875 	0.5 	11.8245
0.375 	-0.921875 	0.5 	11.9316
0.390625 	-0.921875 	0.5 	12.0486
0.40625 	-0.921875 	0.5 	12.2689
0.421875 	-0.921875 	0.5 	12.637
0.4375 	-0.921875 	0.5 	12.552
0.453125 	-0.921875 	0.5 	12.7014
0.46875 	-0.921875 	0.5 	12.6964
0.484375 	-0.921875 	0.5 	12.7577
0.5 	-0.921875 	0.5 	12.86
0.515625 	-0.921875 	0.5 	12.8422
0.53125 	-0.921875 	0.5 	12.8472
0.546875 	-0.921875 	0.5 	12.8567
0.5625 	-0.921875 	0.5 	12.8383
0.578125 	-0.921875 	0.5 	12.8429
0.59375 	-0.921875 	0.5 	12.8289
0.609375 	-0.921875 	0.5 	12.8056
0.625 	-0.921875 	0.5 	12.704
0.640625 	-0.921875 	0.5 	12.6435
0.65625 	-0.921875 	0.5 	12.3818
0.671875 	-0.921875 	0.5 	12.1451
0.6875 	-0.921875 	0.5 	12.1683
0.703125 	-0.921875 	0.5 	12.1062
0.71875 	-0.921875 	0.5 	11.9493
0.734375 	-0.921875 	0.5 	11.7037
0.75 	-0.921875 	0.5 	11.4421
0.765625 	-0.921875 	0.5 	11.004
0.78125 	-0.921875 	0.5 	10.8307
0.796875 	-0.921875 	0.5 	10.7697
0.8125 	-0.921875 	0.5 	10.4522
0.828125 	-0.921875 	0.5 	10.2404
0.84375 	-0.921875 	0.5 	9.82906
0.859375 	-0.921875 	0.5 	9.53314
0.875 	-0.921875 	0.5 	9.28882
0.890625 	-0.921875 	0.5 	8.97751
0.90625 	-0.921875 	0.5 	8.60571
0.921875 	-0.921875 	0.5 	8.21802
0.9375 	-0.921875 	0.5 	7.83684
0.953125 	-0.921875 	0.5 	7.31929
0.96875 	-0.921875 	0.5 	6.94
0.984375 	-0.921875 	0.5 	6.32934
1 	-0.921875 	0.5 	5.79127
1.01562 	-0.921875 	0.5 	5.48122
1.03125 	-0.921875 	0.5 	5.14222
1.04688 	-0.921875 	0.5 	4.88605
1.0625 	-0.921875 	0.5 	4.2968
1.07812 	-0.921875 	0.5 	3.65746
1.09375 	-0.921875 	0.5 	3.07427
1.10938 	-0.921875 	0.5 	2.5377
1.125 	-0.921875 	0.5 	1.95404
1.14062 	-0.921875 	0.5 	1.42579
1.15625 	-0.921875 	0.5 	0.89379
1.17188 	-0.921875 	0.5 	0.354542
1.1875 	-0.921875 	0.5 	-0.222455
1.20312 	-0.921875 	0.5 	-0.97449
1.21875 	-0.921875 	0.5 	-1.56662
1.23438 	-0.921875 	0.5 	-2.1466
1.25 	-0.921875 	0.5 	-2.73411
1.26562 	-0.921875 	0.5 	-3.11776
1.28125 	-0.921875 	0.5 	-3.79804
1.29688 	-0.921875 	0.5 	-4.44265
1.3125 	-0.921875 	0.5 	-5.3801
1.32812 	-0.921875 	0.5 	-5.7688
1.34375 	-0.921875 	0.5 	-6.50796
1.35938 	-0.921875 	0.5 	-6.96372
1.375 	-0.921875 	0.5 	-7.61011
1.39062 	-0.921875 	0.5 	-8.38112
1.40625 	-0.921875 	0.5 	-8.98011
1.42188 	-0.921875 	0.5 	-9.62903
1.4375 	-0.921875 	0.5 	-10.1445
1.45312 	-0.921875 	0.5 	-10.6745
1.46875 	-0.921875 	0.5 	-11.3339
1.48438 	-0.921875 	0.5 	-11.9495
-0.5 	-0.90625 	0.5 	-8.4739
-0.484375 	-0.90625 	0.5 	-8.13866
-0.46875 	-0.90625 	0.5 	-7.58496
-0.453125 	-0.90625 	0.5 	-6.95336
-0.4375 	-0.90625 	0.5 	-6.4559
-0.421875 	-0.90625 	0.5 	-5.89658
-0.40625 	-0.90625 	0.5 	-5.41714
-0.390625 	-0.90625 	0.5 	-5.08394
-0.375 	-0.90625 	0.5 	-4.48536
-0.359375 	-0.90625 	0.5 	-3.97195
-0.34375 	-0.90625 	0.5 	-3.45304
-0.328125 	-0.90625 	0.5 	-2.99691
-0.3125 	-0.90625 	0.5 	-2.44353
-0.296875 	-0.90625 	0.5 	-1.96986
-0.28125 	-0.90625 	0.5 	-1.46498
-0.265625 	-0.90625 	0.5 	-0.981617
-0.25 	-0.90625 	0.5 	-0.474031
-0.234375 	-0.90625 	0.5 	-0.00173208
-0.21875 	-0.90625 	0.5 	0.454021
-0.203125 	-0.90625 	0.5 	0.851076
-0.1875 	-0.90625 	0.5 	1.29561
-0.171875 	-0.90625 	0.5 	1.73891
-0.15625 	-0.90625 	0.5 	2.05128
-0.140625 	-0.90625 	0.5 	2.63093
-0.125 	-0.90625 	0.5 	3.17332
-0.109375 	-0.90625 	0.5 	3.6691
-0.09375 	-0.90625 	0.5 	4.11805
-0.078125 	-0.90625 	0.5 	4.313
-0.0625 	-0.90625 	0.5 	4.66205
-0.046875 	-0.90625 	0.5 	5.02347
-0.03125 	-0.90625 	0.5 	5.48284
-0.015625 	-0.90625 	0.5 	5.94583
0 	-0.90625 	0.5 	6.24416
0.015625 	-0.90625 	0.5 	6.60294
0.03125 	-0.90625 	0.5 	6.7775
0.046875 	-0.90625 	0.5 	7.13303
0.0625 	-0.90625 	0.5 	7.59095
0.078125 	-0.90625 	0.5 	7.92919
0.09375 	-0.90625 	0.5 	8.40832
0.109375 	-0.90625 	0.5 	8.6322
0.125 	-0.90625 	0.5 	8.93986
0.140625 	-0.90625 	0.5 	9.22966
0.15625 	-0.90625 	0.5 	9.53874
0.171875 	-0.90625 	0.5 	9.78776
0.1875 	-0.90625 	0.5 	10.0116
0.203125 	-0.90625 	0.5 	10.5458
0.21875 	-0.90625 	0.5 	10.9292
0.234375 	-0.90625 	0.5 	11.0176
0.25 	-0.90625 	0.5 	10.9089
0.265625 	-0.90625 	0.5 	11.1503
0.28125 	-0.90625 	0.5 	11.5024
0.296875 	-0.90625 	0.5 	11.6634
0.3125 	-0.90625 	0.5 	11.8776
0.328125 	-0.90625 	0.5 	12.0951
0.34375 	-0.90625 	0.5 	12.4729
0.359375 	-0.90625 	0.5 	12.5152
0.375 	-0.90625 	0.5 	12.6115
0.390625 	-0.90625 	0.5 	12.6659
0.40625 	-0.90625 	0.5 	12.8767
0.421875 	-0.90625 	0.5 	13.0703
0.4375 	-0.90625 	0.5 	13.3034
0.453125 	-0.90625 	0.5 	13.3806
0.46875 	-0.90625 	0.5 	13.3174
0.484375 	-0.90625 	0.5 	13.4687
0.5 	-0.90625 	0.5 	13.6535
0.515625 	-0.90625 	0.5 	13.5589
0.53125 	-0.90625 	0.5 	13.5943
0.546875 	-0.90625 	0.5 	13.6045
0.5625 	-0.90625 	0.5 	13.5067
0.578125 	-0.90625 	0.5 	13.5546
0.59375 	-0.90625 	0.5 	13.5415
0.609375 	-0.90625 	0.5 	13.582
0.625 	-0.90625 	0.5 	13.2973
0.640625 	-0.90625 	0.5 	13.3649
0.65625 	-0.90625 	0.5 	13.2536
0.671875 	-0.90625 	0.5 	13.0881
0.6875 	-0.90625 	0.5 	12.9263
0.703125 	-0.90625 	0.5 	12.7873
0.71875 	-0.90625 	0.5 	12.7237
0.734375 	-0.90625 	0.5 	12.5059
0.75 	-0.90625 	0.5 	12.2269
0.765625 	-0.90625 	0.5 	11.9952
0.78125 	-0.90625 	0.5 	11.7932
0.796875 	-0.90625 	0.5 	11.4994
0.8125 	-0.90625 	0.5 	11.2347
0.828125 	-0.90625 	0.5 	10.9633
0.84375 	-0.90625 	0.5 	10.7202
0.859375 	-0.90625 	0.5 	10.364
0.875 	-0.90625 	0.5 	10.0094
0.890625 	-0.90625 	0.5 	9.6781
0.90625 	-0.90625 	0.5 	9.26459
0.921875 	-0.90625 	0.5 	8.87615
0.9375 	-0.90625 	0.5 	8.49609
0.953125 	-0.90625 	0.5 	8.01565
0.96875 	-0.90625 	0.5 	7.46506
0.984375 	-0.90625 	0.5 	6.97692
1 	-0.90625 	0.5 	6.52469
1.01562 	-0.90625 	0.5 	6.07247
1.03125 	-0.90625 	0.5 	5.69223
1.04688 	-0.90625 	0.5 	5.23851
1.0625 	-0.90625 	0.5 	4.79311
1.07812 	-0.90625 	0.5 	4.20291
1.09375 	-0.90625 	0.5 	3.50097
1.10938 	-0.90625 	0.5 	2.99719
1.125 	-0.90625 	0.5 	2.36527
1.14062 	-0.90625 	0.5 	1.76928
1.15625 	-0.90625 	0.5 	1.30872
1.17188 	-0.90625 	0.5 	0.780214
1.1875 	-0.90625 	0.5 	0.154759
1.20312 	-0.90625 	0.5 	-0.491938
1.21875 	-0.90625 	0.5 	-1.2463
1.23438 	-0.90625 	0.5 	-2.06977
1.25 	-0.90625 	0.5 	-2.39525
1.26562 	-0.90625 	0.5 	-2.79359
1.28125 	-0.90625 	0.5 	-3.45432
1.29688 	-0.90625 	0.5 	-4.1363
1.3125 	-0.90625 	0.5 	-4.97953
1.32812 	-0.90625 	0.5 	-5.65909
1.34375 	-0.90625 	0.5 	-6.15622
1.35938 	-0.90625 	0.5 	-6.66936
1.375 	-0.90625 	0.5 	-7.30751
1.39062 	-0.90625 	0.5 	-8.04284
1.40625 	-0.90625 	0.5 	-8.7754
1.42188 	-0.90625 	0.5 	-9.33771
1.4375 	-0.90625 	0.5 	-9.87634
1.45312 	-0.90625 	0.5 	-10.4173
1.46875 	-0.90625 	0.5 	-11.1631
1.48438 	-0.90625 	0.5 	-11.8221
-0.5 	-0.890625 	0.5 	-8.46508
-0.484375 	-0.890625 	0.5 	-8.08662
-0.46875 	-0.890625 	0.5 	-7.36281
-0.453125 	-0.890625 	0.5 	-6.73525
-0.4375 	-0.890625 	0.5 	-6.06401
-0.421875 	-0.890625 	0.5 	-5.59705
-0.40625 	-0.890625 	0.5 	-5.43643
-0.390625 	-0.890625 	0.5 	-4.68944
-0.375 	-0.890625 	0.5 	-4.11239
-0.359375 	-0.890625 	0.5 	-3.60538
-0.34375 	-0.890625 	0.5 	-3.20392
-0.328125 	-0.890625 	0.5 	-2.7118
-0.3125 	-0.890625 	0.5 	-2.06085
-0.296875 	-0.890625 	0.5 	-1.5657
-0.28125 	-0.890625 	0.5 	-1.08175
-0.265625 	-0.890625 	0.5 	-0.620931
-0.25 	-0.890625 	0.5 	-0.0937404
-0.234375 	-0.890625 	0.5 	0.36569
-0.21875 	-0.890625 	0.5 	0.822636
-0.203125 	-0.890625 	0.5 	1.26518
-0.1875 	-0.890625 	0.5 	1.70652
-0.171875 	-0.890625 	0.5 	2.14786
-0.15625 	-0.890625 	0.5 	2.60148
-0.140625 	-0.890625 	0.5 	3.12449
-0.125 	-0.890625 	0.5 	3.57096
-0.109375 	-0.890625 	0.5 	4.02793
-0.09375 	-0.890625 	0.5 	4.42946
-0.078125 	-0.890625 	0.5 	4.80372
-0.0625 	-0.890625 	0.5 	5.20707
-0.046875 	-0.890625 	0.5 	5.59783
-0.03125 	-0.890625 	0.5 	5.98815
-0.015625 	-0.890625 	0.5 	6.45519
0 	-0.890625 	0.5 	6.86194
0.015625 	-0.890625 	0.5 	7.18761
0.03125 	-0.890625 	0.5 	7.11266
0.046875 	-0.890625 	0.5 	7.60001
0.0625 	-0.890625 	0.5 	8.07544
0.078125 	-0.890625 	0.5 	8.51769
0.09375 	-0.890625 	0.5 	8.85834
0.109375 	-0.890625 	0.5 	9.14219
0.125 	-0.890625 	0.5 	9.46431
0.140625 	-0.890625 	0.5 	9.79478