-0.5 	-1 	0.5 	7.28069
-0.484375 	-1 	0.5 	7.20214
-0.46875 	-1 	0.5 	7.11033
-0.453125 	-1 	0.5 	6.9636
-0.4375 	-1 	0.5 	6.83303
-0.421875 	-1 	0.5 	6.71323
-0.40625 	-1 	0.5 	6.56534
-0.390625 	-1 	0.5 	6.42616
-0.375 	-1 	0.5 	6.28196
-0.359375 	-1 	0.5 	6.11682
-0.34375 	-1 	0.5 	5.95786
-0.328125 	-1 	0.5 	5.76778
-0.3125 	-1 	0.5 	5.56499
-0.296875 	-1 	0.5 	5.3591
-0.28125 	-1 	0.5 	5.16198
-0.265625 	-1 	0.5 	4.94789
-0.25 	-1 	0.5 	4.74612
-0.234375 	-1 	0.5 	4.50588
-0.21875 	-1 	0.5 	4.24312
-0.203125 	-1 	0.5 	3.98863
-0.1875 	-1 	0.5 	3.73571
-0.171875 	-1 	0.5 	3.4828
-0.15625 	-1 	0.5 	3.21486
-0.140625 	-1 	0.5 	2.89998
-0.125 	-1 	0.5 	2.61891
-0.109375 	-1 	0.5 	2.34794
-0.09375 	-1 	0.5 	2.03256
-0.078125 	-1 	0.5 	1.75182
-0.0625 	-1 	0.5 	1.45774
-0.046875 	-1 	0.5 	1.15304
-0.03125 	-1 	0.5 	0.908778
-0.015625 	-1 	0.5 	0.579531
0 	-1 	0.5 	0.267047
0.015625 	-1 	0.5 	-0.0218728
0.03125 	-1 	0.5 	-0.338562
0.046875 	-1 	0.5 	-0.608501
0.0625 	-1 	0.5 	-0.823268
0.078125 	-1 	0.5 	-1.17332
0.09375 	-1 	0.5 	-1.44882
0.109375 	-1 	0.5 	-1.7794
0.125 	-1 	0.5 	-1.99824
0.140625 	-1 	0.5 	-2.23639
0.15625 	-1 	0.5 	-2.48883
0.171875 	-1 	0.5 	-2.74426
0.1875 	-1 	0.5 	-2.93239
0.203125 	-1 	0.5 	-3.13465
0.21875 	-1 	0.5 	-3.37118
0.234375 	-1 	0.5 	-3.57466
0.25 	-1 	0.5 	-3.71918
0.265625 	-1 	0.5 	-3.88882
0.28125 	-1 	0.5 	-4.00373
0.296875 	-1 	0.5 	-4.11051
0.3125 	-1 	0.5 	-4.2285
0.328125 	-1 	0.5 	-4.2472
0.34375 	-1 	0.5 	-4.37391
0.359375 	-1 	0.5 	-4.41712
0.375 	-1 	0.5 	-4.49247
0.390625 	-1 	0.5 	-4.52058
0.40625 	-1 	0.5 	-4.51546
0.421875 	-1 	0.5 	-4.50805
0.4375 	-1 	0.5 	-4.45935
0.453125 	-1 	0.5 	-4.41864
0.46875 	-1 	0.5 	-4.33652
0.484375 	-1 	0.5 	-4.25099
0.5 	-1 	0.5 	-4.11804
0.515625 	-1 	0.5 	-3.966
0.53125 	-1 	0.5 	-3.87521
0.546875 	-1 	0.5 	-3.84838
0.5625 	-1 	0.5 	-3.70465
0.578125 	-1 	0.5 	-3.47384
0.59375 	-1 	0.5 	-3.26358
0.609375 	-1 	0.5 	-3.03736
0.625 	-1 	0.5 	-2.81459
0.640625 	-1 	0.5 	-2.54885
0.65625 	-1 	0.5 	-2.3387
0.671875 	-1 	0.5 	-2.08974
0.6875 	-1 	0.5 	-1.79123
0.703125 	-1 	0.5 	-1.48334
0.71875 	-1 	0.5 	-1.24599
0.734375 	-1 	0.5 	-1.01746
0.75 	-1 	0.5 	-0.73998
0.765625 	-1 	0.5 	-0.403173
0.78125 	-1 	0.5 	-0.130584
0.796875 	-1 	0.5 	0.116449
0.8125 	-1 	0.5 	0.432913
0.828125 	-1 	0.5 	0.695086
0.84375 	-1 	0.5 	1.03525
0.859375 	-1 	0.5 	1.33673
0.875 	-1 	0.5 	1.65171
0.890625 	-1 	0.5 	1.92539
0.90625 	-1 	0.5 	2.2318
0.921875 	-1 	0.5 	2.54829
0.9375 	-1 	0.5 	2.84184
0.953125 	-1 	0.5 	3.14764
0.96875 	-1 	0.5 	3.33725
0.984375 	-1 	0.5 	3.59063
1 	-1 	0.5 	3.93651
1.01562 	-1 	0.5 	4.12761
1.03125 	-1 	0.5 	4.48916
1.04688 	-1 	0.5 	4.63169
1.0625 	-1 	0.5 	4.78851
1.07812 	-1 	0.5 	5.00966
1.09375 	-1 	0.5 	5.24003
1.10938 	-1 	0.5 	5.47039
1.125 	-1 	0.5 	5.68432
1.14062 	-1 	0.5 	5.82098
1.15625 	-1 	0.5 	5.99174
1.17188 	-1 	0.5 	6.11943
1.1875 	-1 	0.5 	6.26829
1.20312 	-1 	0.5 	6.46502
1.21875 	-1 	0.5 	6.56495
1.23438 	-1 	0.5 	6.73674
1.25 	-1 	0.5 	6.82854
1.26562 	-1 	0.5 	6.90123
1.28125 	-1 	0.5 	7.01366
1.29688 	-1 	0.5 	7.11382
1.3125 	-1 	0.5 	7.20842
1.32812 	-1 	0.5 	7.30087
1.34375 	-1 	0.5 	7.38392
1.35938 	-1 	0.5 	7.43871
1.375 	-1 	0.5 	7.49709
1.39062 	-1 	0.5 	7.55648
1.40625 	-1 	0.5 	7.59889
1.42188 	-1 	0.5 	7.63267
1.4375 	-1 	0.5 	7.62775
1.45312 	-1 	0.5 	7.6164
1.46875 	-1 	0.5 	7.63045
1.48438 	-1 	0.5 	7.66214
-0.5 	-0.984375 	0.5 	7.47445
-0.484375 	-0.984375 	0.5 	7.39615
-0.46875 	-0.984375 	0.5 	7.30309
-0.453125 	-0.984375 	0.5 	7.1514
-0.4375 	-0.984375 	0.5 	7.0194
-0.421875 	-0.984375 	0.5 	6.88589
-0.40625 	-0.984375 	0.5 	6.73381
-0.390625 	-0.984375 	0.5 	6.58874
-0.375 	-0.984375 	0.5 	6.46012
-0.359375 	-0.984375 	0.5 	6.27914
-0.34375 	-0.984375 	0.5 	6.09794
-0.328125 	-0.984375 	0.5 	5.914
-0.3125 	-0.984375 	0.5 	5.70941
-0.296875 	-0.984375 	0.5 	5.5099
-0.28125 	-0.984375 	0.5 	5.28729
-0.265625 	-0.984375 	0.5 	5.0574
-0.25 	-0.984375 	0.5 	4.85985
-0.234375 	-0.984375 	0.5 	4.60745
-0.21875 	-0.984375 	0.5 	4.33151
-0.203125 	-0.984375 	0.5 	4.0627
-0.1875 	-0.984375 	0.5 	3.81087
-0.171875 	-0.984375 	0.5 	3.55771
-0.15625 	-0.984375 	0.5 	3.27873
-0.140625 	-0.984375 	0.5 	2.97444
-0.125 	-0.984375 	0.5 	2.67518
-0.109375 	-0.984375 	0.5 	2.3876
-0.09375 	-0.984375 	0.5 	2.0785
-0.078125 	-0.984375 	0.5 	1.76504
-0.0625 	-0.984375 	0.5 	1.47163
-0.046875 	-0.984375 	0.5 	1.18661
-0.03125 	-0.984375 	0.5 	0.853939
-0.015625 	-0.984375 	0.5 	0.517681
0 	-0.984375 	0.5 	0.195311
0.015625 	-0.984375 	0.5 	-0.118234
0.03125 	-0.984375 	0.5 	-0.439905
0.046875 	-0.984375 	0.5 	-0.738706
0.0625 	-0.984375 	0.5 	-1.03827
0.078125 	-0.984375 	0.5 	-1.33452
0.09375 	-0.984375 	0.5 	-1.62201
0.109375 	-0.984375 	0.5 	-1.92007
0.125 	-0.984375 	0.5 	-2.20922
0.140625 	-0.984375 	0.5 	-2.48108
0.15625 	-0.984375 	0.5 	-2.73202
0.171875 	-0.984375 	0.5 	-2.98829
0.1875 	-0.984375 	0.5 	-3.18944
0.203125 	-0.984375 	0.5 	-3.41286
0.21875 	-0.984375 	0.5 	-3.64938
0.234375 	-0.984375 	0.5 	-3.84047
0.25 	-0.984375 	0.5 	-4.02924
0.265625 	-0.984375 	0.5 	-4.19421
0.28125 	-0.984375 	0.5 	-4.32025
0.296875 	-0.984375 	0.5 	-4.42754
0.3125 	-0.984375 	0.5 	-4.54133
0.328125 	-0.984375 	0.5 	-4.5971
0.34375 	-0.984375 	0.5 	-4.66264
0.359375 	-0.984375 	0.5 	-4.74023
0.375 	-0.984375 	0.5 	-4.80692
0.390625 	-0.984375 	0.5 	-4.86774
0.40625 	-0.984375 	0.5 	-4.87598
0.421875 	-0.984375 	0.5 	-4.84149
0.4375 	-0.984375 	0.5 	-4.7927
0.453125 	-0.984375 	0.5 	-4.74461
0.46875 	-0.984375 	0.5 	-4.67034
0.484375 	-0.984375 	0.5 	-4.63223
0.5 	-0.984375 	0.5 	-4.44677
0.515625 	-0.984375 	0.5 	-4.31552
0.53125 	-0.984375 	0.5 	-4.18907
0.546875 	-0.984375 	0.5 	-4.10281
0.5625 	-0.984375 	0.5 	-3.90098
0.578125 	-0.984375 	0.5 	-3.72389
0.59375 	-0.984375 	0.5 	-3.49711
0.609375 	-0.984375 	0.5 	-3.25101
0.625 	-0.984375 	0.5 	-3.11
0.640625 	-0.984375 	0.5 	-2.89914
0.65625 	-0.984375 	0.5 	-2.63281
0.671875 	-0.984375 	0.5 	-2.2967
0.6875 	-0.984375 	0.5 	-1.86735
0.703125 	-0.984375 	0.5 	-1.69052
0.71875 	-0.984375 	0.5 	-1.39187
0.734375 	-0.984375 	0.5 	-1.15265
0.75 	-0.984375 	0.5 	-0.806386
0.765625 	-0.984375 	0.5 	-0.515354
0.78125 	-0.984375 	0.5 	-0.228487
0.796875 	-0.984375 	0.5 	0.0521046
0.8125 	-0.984375 	0.5 	0.345639
0.828125 	-0.984375 	0.5 	0.672005
0.84375 	-0.984375 	0.5 	1.00982
0.859375 	-0.984375 	0.5 	1.31199
0.875 	-0.984375 	0.5 	1.61242
0.890625 	-0.984375 	0.5 	1.91882
0.90625 	-0.984375 	0.5 	2.24323
0.921875 	-0.984375 	0.5 	2.53918
0.9375 	-0.984375 	0.5 	2.8435
0.953125 	-0.984375 	0.5 	3.1151
0.96875 	-0.984375 	0.5 	3.30787
0.984375 	-0.984375 	0.5 	3.56541
1 	-0.984375 	0.5 	3.96571
1.01562 	-0.984375 	0.5 	4.19566
1.03125 	-0.984375 	0.5 	4.51348
1.04688 	-0.984375 	0.5 	4.65343
1.0625 	-0.984375 	0.5 	4.91968
1.07812 	-0.984375 	0.5 	5.18266
1.09375 	-0.984375 	0.5 	5.42132
1.10938 	-0.984375 	0.5 	5.61331
1.125 	-0.984375 	0.5 	5.85771
1.14062 	-0.984375 	0.5 	6.00657
1.15625 	-0.984375 	0.5 	6.11323
1.17188 	-0.984375 	0.5 	6.284
1.1875 	-0.984375 	0.5 	6.45476
1.20312 	-0.984375 	0.5 	6.60854
1.21875 	-0.984375 	0.5 	6.71958
1.23438 	-0.984375 	0.5 	6.83961
1.25 	-0.984375 	0.5 	6.96111
1.26562 	-0.984375 	0.5 	7.08242
1.28125 	-0.984375 	0.5 	7.19179
1.29688 	-0.984375 	0.5 	7.28854
1.3125 	-0.984375 	0.5 	7.375
1.32812 	-0.984375 	0.5 	7.46145
1.34375 	-0.984375 	0.5 	7.5479
1.35938 	-0.984375 	0.5 	7.6183
1.375 	-0.984375 	0.5 	7.66719
1.39062 	-0.984375 	0.5 	7.71785
1.40625 	-0.984375 	0.5 	7.76897
1.42188 	-0.984375 	0.5 	7.79737
1.4375 	-0.984375 	0.5 	7.8001
1.45312 	-0.984375 	0.5 	7.80282
1.46875 	-0.984375 	0.5 	7.80554
1.48438 	-0.984375 	0.5 	7.8171
-0.5 	-0.96875 	0.5 	7.70588
-0.484375 	-0.96875 	0.5 	7.59614
-0.46875 	-0.96875 	0.5 	7.49585
-0.453125 	-0.96875 	0.5 	7.35445
-0.4375 	-0.96875 	0.5 	7.20837
-0.421875 	-0.96875 	0.5 	7.09062
-0.40625 	-0.96875 	0.5 	6.93749
-0.390625 	-0.96875 	0.5 	6.77678
-0.375 	-0.96875 	0.5 	6.63827
-0.359375 	-0.96875 	0.5 	6.45547
-0.34375 	-0.96875 	0.5 	6.26655
-0.328125 	-0.96875 	0.5 	6.071
-0.3125 	-0.96875 	0.5 	5.86596
-0.296875 	-0.96875 	0.5 	5.66969
-0.28125 	-0.96875 	0.5 	5.44448
-0.265625 	-0.96875 	0.5 	5.20807
-0.25 	-0.96875 	0.5 	4.96185
-0.234375 	-0.96875 	0.5 	4.68906
-0.21875 	-0.96875 	0.5 	4.44094
-0.203125 	-0.96875 	0.5 	4.15127
-0.1875 	-0.96875 	0.5 	3.8844
-0.171875 	-0.96875 	0.5 	3.63225
-0.15625 	-0.96875 	0.5 	3.33851
-0.140625 	-0.96875 	0.5 	3.03549
-0.125 	-0.96875 	0.5 	2.73025
-0.109375 	-0.96875 	0.5 	2.39818
-0.09375 	-0.96875 	0.5 	2.0844
-0.078125 	-0.96875 	0.5 	1.77336
-0.0625 	-0.96875 	0.5 	1.44152
-0.046875 	-0.96875 	0.5 	1.17147
-0.03125 	-0.96875 	0.5 	0.81052
-0.015625 	-0.96875 	0.5 	0.46077
0 	-0.96875 	0.5 	0.137323
0.015625 	-0.96875 	0.5 	-0.221736
0.03125 	-0.96875 	0.5 	-0.553624
0.046875 	-0.96875 	0.5 	-0.872773
0.0625 	-0.96875 	0.5 	-1.14327
0.078125 	-0.96875 	0.5 	-1.52068
0.09375 	-0.96875 	0.5 	-1.80466
0.109375 	-0.96875 	0.5 	-2.14967
0.125 	-0.96875 	0.5 	-2.42299
0.140625 	-0.96875 	0.5 	-2.73353
0.15625 	-0.96875 	0.5 	-2.97041
0.171875 	-0.96875 	0.5 	-3.17673
0.1875 	-0.96875 	0.5 	-3.43935
0.203125 	-0.96875 	0.5 	-3.68287
0.21875 	-0.96875 	0.5 	-3.92585
0.234375 	-0.96875 	0.5 	-4.13584
0.25 	-0.96875 	0.5 	-4.31576
0.265625 	-0.96875 	0.5 	-4.51655
0.28125 	-0.96875 	0.5 	-4.6815
0.296875 	-0.96875 	0.5 	-4.79834
0.3125 	-0.96875 	0.5 	-4.89192
0.328125 	-0.96875 	0.5 	-5.00828
0.34375 	-0.96875 	0.5 	-5.07918
0.359375 	-0.96875 	0.5 	-5.19436
0.375 	-0.96875 	0.5 	-5.29781
0.390625 	-0.96875 	0.5 	-5.29282
0.40625 	-0.96875 	0.5 	-5.21522
0.421875 	-0.96875 	0.5 	-5.1401
0.4375 	-0.96875 	0.5 	-5.09832
0.453125 	-0.96875 	0.5 	-5.08003
0.46875 	-0.96875 	0.5 	-5.00455
0.484375 	-0.96875 	0.5 	-4.95526
0.5 	-0.96875 	0.5 	-4.79864
0.515625 	-0.96875 	0.5 	-4.67983
0.53125 	-0.96875 	0.5 	-4.57112
0.546875 	-0.96875 	0.5 	-4.39189
0.5625 	-0.96875 	0.5 	-4.27893
0.578125 	-0.96875 	0.5 	-4.05534
0.59375 	-0.96875 	0.5 	-3.8242
0.609375 	-0.96875 	0.5 	-3.54844
0.625 	-0.96875 	0.5 	-3.41769
0.640625 	-0.96875 	0.5 	-3.13811
0.65625 	-0.96875 	0.5 	-2.88083
0.671875 	-0.96875 	0.5 	-2.54213
0.6875 	-0.96875 	0.5 	-2.21685
0.703125 	-0.96875 	0.5 	-1.86631
0.71875 	-0.96875 	0.5 	-1.60806
0.734375 	-0.96875 	0.5 	-1.31621
0.75 	-0.96875 	0.5 	-0.959921
0.765625 	-0.96875 	0.5 	-0.623527
0.78125 	-0.96875 	0.5 	-0.401079
0.796875 	-0.96875 	0.5 	-0.0786534
0.8125 	-0.96875 	0.5 	0.232299
0.828125 	-0.96875 	0.5 	0.663714
0.84375 	-0.96875 	0.5 	0.980256
0.859375 	-0.96875 	0.5 	1.2968
0.875 	-0.96875 	0.5 	1.60994
0.890625 	-0.96875 	0.5 	1.92752
0.90625 	-0.96875 	0.5 	2.25381
0.921875 	-0.96875 	0.5 	2.5516
0.9375 	-0.96875 	0.5 	2.84949
0.953125 	-0.96875 	0.5 	3.15072
0.96875 	-0.96875 	0.5 	3.43791
0.984375 	-0.96875 	0.5 	3.71133
1 	-0.96875 	0.5 	3.95872
1.01562 	-0.96875 	0.5 	4.30054
1.03125 	-0.96875 	0.5 	4.51558
1.04688 	-0.96875 	0.5 	4.77235
1.0625 	-0.96875 	0.5 	5.04746
1.07812 	-0.96875 	0.5 	5.33086
1.09375 	-0.96875 	0.5 	5.56008
1.10938 	-0.96875 	0.5 	5.79495
1.125 	-0.96875 	0.5 	6.0292
1.14062 	-0.96875 	0.5 	6.20434
1.15625 	-0.96875 	0.5 	6.29388
1.17188 	-0.96875 	0.5 	6.47551
1.1875 	-0.96875 	0.5 	6.64213
1.20312 	-0.96875 	0.5 	6.80837
1.21875 	-0.96875 	0.5 	6.93179
1.23438 	-0.96875 	0.5 	7.05599
1.25 	-0.96875 	0.5 	7.17779
1.26562 	-0.96875 	0.5 	7.29289
1.28125 	-0.96875 	0.5 	7.39236
1.29688 	-0.96875 	0.5 	7.50509
1.3125 	-0.96875 	0.5 	7.5931
1.32812 	-0.96875 	0.5 	7.67895
1.34375 	-0.96875 	0.5 	7.7537
1.35938 	-0.96875 	0.5 	7.8229
1.375 	-0.96875 	0.5 	7.85813
1.39062 	-0.96875 	0.5 	7.90225
1.40625 	-0.96875 	0.5 	7.97701
1.42188 	-0.96875 	0.5 	7.99636
1.4375 	-0.96875 	0.5 	7.974
1.45312 	-0.96875 	0.5 	7.97222
1.46875 	-0.96875 	0.5 	7.98013
1.48438 	-0.96875 	0.5 	8.00522
-0.5 	-0.953125 	0.5 	7.88947
-0.484375 	-0.953125 	0.5 	7.78326
-0.46875 	-0.953125 	0.5 	7.69979
-0.453125 	-0.953125 	0.5 	7.56321
-0.4375 	-0.953125 	0.5 	7.421
-0.421875 	-0.953125 	0.5 	7.29535
-0.40625 	-0.953125 	0.5 	7.14368
-0.390625 	-0.953125 	0.5 	6.98126
-0.375 	-0.953125 	0.5 	6.82037
-0.359375 	-0.953125 	0.5 	6.62764
-0.34375 	-0.953125 	0.5 	6.44996
-0.328125 	-0.953125 	0.5 	6.25479
-0.3125 	-0.953125 	0.5 	6.03987
-0.296875 	-0.953125 	0.5 	5.82872
-0.28125 	-0.953125 	0.5 	5.59035
-0.265625 	-0.953125 	0.5 	5.35348
-0.25 	-0.953125 	0.5 	5.11578
-0.234375 	-0.953125 	0.5 	4.82364
-0.21875 	-0.953125 	0.5 	4.55213
-0.203125 	-0.953125 	0.5 	4.27328
-0.1875 	-0.953125 	0.5 	3.99647
-0.171875 	-0.953125 	0.5 	3.7168
-0.15625 	-0.953125 	0.5 	3.40276
-0.140625 	-0.953125 	0.5 	3.10346
-0.125 	-0.953125 	0.5 	2.78402
-0.109375 	-0.953125 	0.5 	2.40898
-0.09375 	-0.953125 	0.5 	2.09187
-0.078125 	-0.953125 	0.5 	1.74553
-0.0625 	-0.953125 	0.5 	1.42421
-0.046875 	-0.953125 	0.5 	1.09443
-0.03125 	-0.953125 	0.5 	0.738148
-0.015625 	-0.953125 	0.5 	0.403638
0 	-0.953125 	0.5 	0.0592259
0.015625 	-0.953125 	0.5 	-0.308857
0.03125 	-0.953125 	0.5 	-0.6784
0.046875 	-0.953125 	0.5 	-1.0324
0.0625 	-0.953125 	0.5 	-1.37342
0.078125 	-0.953125 	0.5 	-1.66628
0.09375 	-0.953125 	0.5 	-1.97212
0.109375 	-0.953125 	0.5 	-2.32238
0.125 	-0.953125 	0.5 	-2.64688
0.140625 	-0.953125 	0.5 	-2.89649
0.15625 	-0.953125 	0.5 	-3.20151
0.171875 	-0.953125 	0.5 	-3.54273
0.1875 	-0.953125 	0.5 	-3.74882
0.203125 	-0.953125 	0.5 	-4.07774
0.21875 	-0.953125 	0.5 	-4.29062
0.234375 	-0.953125 	0.5 	-4.4958
0.25 	-0.953125 	0.5 	-4.66793
0.265625 	-0.953125 	0.5 	-4.88309
0.28125 	-0.953125 	0.5 	-5.0668
0.296875 	-0.953125 	0.5 	-5.18859
0.3125 	-0.953125 	0.5 	-5.33608
0.328125 	-0.953125 	0.5 	-5.45908
0.34375 	-0.953125 	0.5 	-5.52343
0.359375 	-0.953125 	0.5 	-5.59241
0.375 	-0.953125 	0.5 	-5.67852
0.390625 	-0.953125 	0.5 	-5.72347
0.40625 	-0.953125 	0.5 	-5.581
0.421875 	-0.953125 	0.5 	-5.57684
0.4375 	-0.953125 	0.5 	-5.49067
0.453125 	-0.953125 	0.5 	-5.44485
0.46875 	-0.953125 	0.5 	-5.39464
0.484375 	-0.953125 	0.5 	-5.29754
0.5 	-0.953125 	0.5 	-5.21451
0.515625 	-0.953125 	0.5 	-5.08295
0.53125 	-0.953125 	0.5 	-4.92967
0.546875 	-0.953125 	0.5 	-4.77092
0.5625 	-0.953125 	0.5 	-4.57532
0.578125 	-0.953125 	0.5 	-4.35737
0.59375 	-0.953125 	0.5 	-4.12088
0.609375 	-0.953125 	0.5 	-3.88465
0.625 	-0.953125 	0.5 	-3.63437
0.640625 	-0.953125 	0.5 	-3.37719
0.65625 	-0.953125 	0.5 	-3.1186
0.671875 	-0.953125 	0.5 	-2.76739
0.6875 	-0.953125 	0.5 	-2.44211
0.703125 	-0.953125 	0.5 	-2.11335
0.71875 	-0.953125 	0.5 	-1.79326
0.734375 	-0.953125 	0.5 	-1.41407
0.75 	-0.953125 	0.5 	-1.10502
0.765625 	-0.953125 	0.5 	-0.760959
0.78125 	-0.953125 	0.5 	-0.47493
0.796875 	-0.953125 	0.5 	-0.189759
0.8125 	-0.953125 	0.5 	0.142567
0.828125 	-0.953125 	0.5 	0.576021
0.84375 	-0.953125 	0.5 	0.940764
0.859375 	-0.953125 	0.5 	1.2465
0.875 	-0.953125 	0.5 	1.56238
0.890625 	-0.953125 	0.5 	1.85889
0.90625 	-0.953125 	0.5 	2.24648
0.921875 	-0.953125 	0.5 	2.569
0.9375 	-0.953125 	0.5 	2.85491
0.953125 	-0.953125 	0.5 	3.2428
0.96875 	-0.953125 	0.5 	3.44574
0.984375 	-0.953125 	0.5 	3.75789
1 	-0.953125 	0.5 	4.08486
1.01562 	-0.953125 	0.5 	4.38593
1.03125 	-0.953125 	0.5 	4.66527
1.04688 	-0.953125 	0.5 	4.9325
1.0625 	-0.953125 	0.5 	5.19972
1.07812 	-0.953125 	0.5 	5.46701
1.09375 	-0.953125 	0.5 	5.72044
1.10938 	-0.953125 	0.5 	5.95342
1.125 	-0.953125 	0.5 	6.1864
1.14062 	-0.953125 	0.5 	6.39832
1.15625 	-0.953125 	0.5 	6.52486
1.17188 	-0.953125 	0.5 	6.6754
1.1875 	-0.953125 	0.5 	6.79459
1.20312 	-0.953125 	0.5 	7.01391
1.21875 	-0.953125 	0.5 	7.14544
1.23438 	-0.953125 	0.5 	7.26547
1.25 	-0.953125 	0.5 	7.38797
1.26562 	-0.953125 	0.5 	7.49491
1.28125 	-0.953125 	0.5 	7.59803
1.29688 	-0.953125 	0.5 	7.70918
1.3125 	-0.953125 	0.5 	7.8096
1.32812 	-0.953125 	0.5 	7.8896
1.34375 	-0.953125 	0.5 	7.94093
1.35938 	-0.953125 	0.5 	8.0168
1.375 	-0.953125 	0.5 	8.07805
1.39062 	-0.953125 	0.5 	8.12766
1.40625 	-0.953125 	0.5 	8.18604
1.42188 	-0.953125 	0.5 	8.20026
1.4375 	-0.953125 	0.5 	8.18552
1.45312 	-0.953125 	0.5 	8.17869
1.46875 	-0.953125 	0.5 	8.20243
1.48438 	-0.953125 	0.5 	8.19786
-0.5 	-0.9375 	0.5 	8.07976
-0.484375 	-0.9375 	0.5 	8.01201
-0.46875 	-0.9375 	0.5 	7.90612
-0.453125 	-0.9375 	0.5 	7.76135
-0.4375 	-0.9375 	0.5 	7.63104
-0.421875 	-0.9375 	0.5 	7.49967
-0.40625 	-0.9375 	0.5 	7.33703
-0.390625 	-0.9375 	0.5 	7.17566
-0.375 	-0.9375 	0.5 	7.03371
-0.359375 	-0.9375 	0.5 	6.8417
-0.34375 	-0.9375 	0.5 	6.6393
-0.328125 	-0.9375 	0.5 	6.43853
-0.3125 	-0.9375 	0.5 	6.21907
-0.296875 	-0.9375 	0.5 	6.00739
-0.28125 	-0.9375 	0.5 	5.75917
-0.265625 	-0.9375 	0.5 	5.51623
-0.25 	-0.9375 	0.5 	5.26446
-0.234375 	-0.9375 	0.5 	4.96989
-0.21875 	-0.9375 	0.5 	4.68179
-0.203125 	-0.9375 	0.5 	4.37162
-0.1875 	-0.9375 	0.5 	4.08259
-0.171875 	-0.9375 	0.5 	3.80699
-0.15625 	-0.9375 	0.5 	3.4732
-0.140625 	-0.9375 	0.5 	3.15646
-0.125 	-0.9375 	0.5 	2.82631
-0.109375 	-0.9375 	0.5 	2.46141
-0.09375 	-0.9375 	0.5 	2.09926
-0.078125 	-0.9375 	0.5 	1.74257
-0.0625 	-0.9375 	0.5 	1.39563
-0.046875 	-0.9375 	0.5 	1.08846
-0.03125 	-0.9375 	0.5 	0.674269
-0.015625 	-0.9375 	0.5 	0.335222
0 	-0.9375 	0.5 	-0.0430495
0.015625 	-0.9375 	0.5 	-0.416796
0.03125 	-0.9375 	0.5 	-0.798266
0.046875 	-0.9375 	0.5 	-1.20073
0.0625 	-0.9375 	0.5 	-1.55085
0.078125 	-0.9375 	0.5 	-1.82319
0.09375 	-0.9375 	0.5 	-2.23367
0.109375 	-0.9375 	0.5 	-2.55621
0.125 	-0.9375 	0.5 	-2.87414
0.140625 	-0.9375 	0.5 	-3.17225
0.15625 	-0.9375 	0.5 	-3.46833
0.171875 	-0.9375 	0.5 	-3.74983
0.1875 	-0.9375 	0.5 	-4.01408
0.203125 	-0.9375 	0.5 	-4.32451
0.21875 	-0.9375 	0.5 	-4.57711
0.234375 	-0.9375 	0.5 	-4.82156
0.25 	-0.9375 	0.5 	-5.03527
0.265625 	-0.9375 	0.5 	-5.21677
0.28125 	-0.9375 	0.5 	-5.33866
0.296875 	-0.9375 	0.5 	-5.54216
0.3125 	-0.9375 	0.5 	-5.76611
0.328125 	-0.9375 	0.5 	-5.91574
0.34375 	-0.9375 	0.5 	-5.98234
0.359375 	-0.9375 	0.5 	-6.00648
0.375 	-0.9375 	0.5 	-6.06246
0.390625 	-0.9375 	0.5 	-6.08351
0.40625 	-0.9375 	0.5 	-6.0423
0.421875 	-0.9375 	0.5 	-5.99312
0.4375 	-0.9375 	0.5 	-5.96479
0.453125 	-0.9375 	0.5 	-5.88453
0.46875 	-0.9375 	0.5 	-5.84055
0.484375 	-0.9375 	0.5 	-5.77951
0.5 	-0.9375 	0.5 	-5.65147
0.515625 	-0.9375 	0.5 	-5.46235
0.53125 	-0.9375 	0.5 	-5.26096
0.546875 	-0.9375 	0.5 	-5.04702
0.5625 	-0.9375 	0.5 	-4.93847
0.578125 	-0.9375 	0.5 	-4.67914
0.59375 	-0.9375 	0.5 	-4.46785
0.609375 	-0.9375 	0.5 	-4.11236
0.625 	-0.9375 	0.5 	-3.9155
0.640625 	-0.9375 	0.5 	-3.63526
0.65625 	-0.9375 	0.5 	-3.35611
0.671875 	-0.9375 	0.5 	-3.03586
0.6875 	-0.9375 	0.5 	-2.70626
0.703125 	-0.9375 	0.5 	-2.35313
0.71875 	-0.9375 	0.5 	-1.93609
0.734375 	-0.9375 	0.5 	-1.67581
0.75 	-0.9375 	0.5 	-1.29834
0.765625 	-0.9375 	0.5 	-0.919964
0.78125 	-0.9375 	0.5 	-0.569047
0.796875 	-0.9375 	0.5 	-0.187074
0.8125 	-0.9375 	0.5 	0.140849
0.828125 	-0.9375 	0.5 	0.486888
0.84375 	-0.9375 	0.5 	0.851762
0.859375 	-0.9375 	0.5 	1.20626
0.875 	-0.9375 	0.5 	1.54496
0.890625 	-0.9375 	0.5 	1.90477
0.90625 	-0.9375 	0.5 	2.31867
0.921875 	-0.9375 	0.5 	2.67175
0.9375 	-0.9375 	0.5 	2.9961
0.953125 	-0.9375 	0.5 	3.31907
0.96875 	-0.9375 	0.5 	3.5978
0.984375 	-0.9375 	0.5 	3.88354
1 	-0.9375 	0.5 	4.1973
1.01562 	-0.9375 	0.5 	4.49038
1.03125 	-0.9375 	0.5 	4.82614
1.04688 	-0.9375 	0.5 	5.09505
1.0625 	-0.9375 	0.5 	5.36206
1.07812 	-0.9375 	0.5 	5.63004
1.09375 	-0.9375 	0.5 	5.8935
1.10938 	-0.9375 	0.5 	6.13574
1.125 	-0.9375 	0.5 	6.35074
1.14062 	-0.9375 	0.5 	6.56574
1.15625 	-0.9375 	0.5 	6.72503
1.17188 	-0.9375 	0.5 	6.86519
1.1875 	-0.9375 	0.5 	7.00535
1.20312 	-0.9375 	0.5 	7.20973
1.21875 	-0.9375 	0.5 	7.35195
1.23438 	-0.9375 	0.5 	7.47298
1.25 	-0.9375 	0.5 	7.58379
1.26562 	-0.9375 	0.5 	7.74256
1.28125 	-0.9375 	0.5 	7.83703
1.29688 	-0.9375 	0.5 	7.93149
1.3125 	-0.9375 	0.5 	8.02563
1.32812 	-0.9375 	0.5 	8.08968
1.34375 	-0.9375 	0.5 	8.15373
1.35938 	-0.9375 	0.5 	8.21777
1.375 	-0.9375 	0.5 	8.29797
1.39062 	-0.9375 	0.5 	8.34743
1.40625 	-0.9375 	0.5 	8.37735
1.42188 	-0.9375 	0.5 	8.3891
1.4375 	-0.9375 	0.5 	8.39487
1.45312 	-0.9375 	0.5 	8.39344
1.46875 	-0.9375 	0.5 	8.38876
1.48438 	-0.9375 	0.5 	8.39475
-0.5 	-0.921875 	0.5 	8.27225
-0.484375 	-0.921875 	0.5 	8.1923
-0.46875 	-0.921875 	0.5 	8.11246
-0.453125 	-0.921875 	0.5 	7.97951
-0.4375 	-0.921875 	0.5 	7.85421
-0.421875 	-0.921875 	0.5 	7.73236
-0.40625 	-0.921875 	0.5 	7.55994
-0.390625 	-0.921875 	0.5 	7.39898
-0.375 	-0.921875 	0.5 	7.24648
-0.359375 	-0.921875 	0.5 	7.0444
-0.34375 	-0.921875 	0.5 	6.84928
-0.328125 	-0.921875 	0.5 	6.62847
-0.3125 	-0.921875 	0.5 	6.40589
-0.296875 	-0.921875 	0.5 	6.19118
-0.28125 	-0.921875 	0.5 	5.94296
-0.265625 	-0.921875 	0.5 	5.69153
-0.25 	-0.921875 	0.5 	5.40024
-0.234375 	-0.921875 	0.5 	5.09834
-0.21875 	-0.921875 	0.5 	4.82742
-0.203125 	-0.921875 	0.5 	4.50879
-0.1875 	-0.921875 	0.5 	4.19336
-0.171875 	-0.921875 	0.5 	3.89241
-0.15625 	-0.921875 	0.5 	3.55466
-0.140625 	-0.921875 	0.5 	3.22475
-0.125 	-0.921875 	0.5 	2.8987
-0.109375 	-0.921875 	0.5 	2.55264
-0.09375 	-0.921875 	0.5 	2.08002
-0.078125 	-0.921875 	0.5 	1.66665
-0.0625 	-0.921875 	0.5 	1.39348
-0.046875 	-0.921875 	0.5 	1.03641
-0.03125 	-0.921875 	0.5 	0.644276
-0.015625 	-0.921875 	0.5 	0.259642
0 	-0.921875 	0.5 	-0.120203
0.015625 	-0.921875 	0.5 	-0.511473
0.03125 	-0.921875 	0.5 	-0.908525
0.046875 	-0.921875 	0.5 	-1.31038
0.0625 	-0.921875 	0.5 	-1.68878
0.078125 	-0.921875 	0.5 	-2.06256
0.09375 	-0.921875 	0.5 	-2.46208
0.109375 	-0.921875 	0.5 	-2.79446
0.125 	-0.921875 	0.5 	-3.11121
0.140625 	-0.921875 	0.5 	-3.40218
0.15625 	-0.921875 	0.5 	-3.72119
0.171875 	-0.921875 	0.5 	-4.11275
0.1875 	-0.921875 	0.5 	-4.40096
0.203125 	-0.921875 	0.5 	-4.65491
0.21875 	-0.921875 	0.5 	-4.91483
0.234375 	-0.921875 	0.5 	-5.17072
0.25 	-0.921875 	0.5 	-5.3984
0.265625 	-0.921875 	0.5 	-5.64459
0.28125 	-0.921875 	0.5 	-5.77808
0.296875 	-0.921875 	0.5 	-5.97149
0.3125 	-0.921875 	0.5 	-6.1667
0.328125 	-0.921875 	0.5 	-6.26649
0.34375 	-0.921875 	0.5 	-6.36111
0.359375 	-0.921875 	0.5 	-6.42749
0.375 	-0.921875 	0.5 	-6.47874
0.390625 	-0.921875 	0.5 	-6.36197
0.40625 	-0.921875 	0.5 	-6.49642
0.421875 	-0.921875 	0.5 	-6.4561
0.4375 	-0.921875 	0.5 	-6.47567
0.453125 	-0.921875 	0.5 	-6.59271
0.46875 	-0.921875 	0.5 	-6.3095
0.484375 	-0.921875 	0.5 	-6.17613
0.5 	-0.921875 	0.5 	-6.03486
0.515625 	-0.921875 	0.5 	-5.86824
0.53125 	-0.921875 	0.5 	-5.64244
0.546875 	-0.921875 	0.5 	-5.4473
0.5625 	-0.921875 	0.5 	-5.29222
0.578125 	-0.921875 	0.5 	-5.02665
0.59375 	-0.921875 	0.5 	-4.73824
0.609375 	-0.921875 	0.5 	-4.44368
0.625 	-0.921875 	0.5 	-4.21951
0.640625 	-0.921875 	0.5 	-3.95046
0.65625 	-0.921875 	0.5 	-3.62778
0.671875 	-0.921875 	0.5 	-3.2726
0.6875 	-0.921875 	0.5 	-2.94543
0.703125 	-0.921875 	0.5 	-2.56003
0.71875 	-0.921875 	0.5 	-2.16314
0.734375 	-0.921875 	0.5 	-1.78722
0.75 	-0.921875 	0.5 	-1.42654
0.765625 	-0.921875 	0.5 	-1.06815
0.78125 	-0.921875 	0.5 	-0.601371
0.796875 	-0.921875 	0.5 	-0.333174
0.8125 	-0.921875 	0.5 	0.0240462
0.828125 	-0.921875 	0.5 	0.427307
0.84375 	-0.921875 	0.5 	0.840998
0.859375 	-0.921875 	0.5 	1.13268
0.875 	-0.921875 	0.5 	1.52079
0.890625 	-0.921875 	0.5 	1.87911
0.90625 	-0.921875 	0.5 	2.33976
0.921875 	-0.921875 	0.5 	2.69761
0.9375 	-0.921875 	0.5 	3.0279
0.953125 	-0.921875 	0.5 	3.42651
0.96875 	-0.921875 	0.5 	3.73589
0.984375 	-0.921875 	0.5 	4.01991
1 	-0.921875 	0.5 	4.34978
1.01562 	-0.921875 	0.5 	4.6067
1.03125 	-0.921875 	0.5 	4.91993
1.04688 	-0.921875 	0.5 	5.25517
1.0625 	-0.921875 	0.5 	5.52251
1.07812 	-0.921875 	0.5 	5.80562
1.09375 	-0.921875 	0.5 	6.06319
1.10938 	-0.921875 	0.5 	6.32071
1.125 	-0.921875 	0.5 	6.53701
1.14062 	-0.921875 	0.5 	6.74581
1.15625 	-0.921875 	0.5 	6.95616
1.17188 	-0.921875 	0.5 	7.10581
1.1875 	-0.921875 	0.5 	7.26254
1.20312 	-0.921875 	0.5 	7.40716
1.21875 	-0.921875 	0.5 	7.55195
1.23438 	-0.921875 	0.5 	7.65402
1.25 	-0.921875 	0.5 	7.78588
1.26562 	-0.921875 	0.5 	7.96964
1.28125 	-0.921875 	0.5 	8.1041
1.29688 	-0.921875 	0.5 	8.16349
1.3125 	-0.921875 	0.5 	8.28232
1.32812 	-0.921875 	0.5 	8.34736
1.34375 	-0.921875 	0.5 	8.40349
1.35938 	-0.921875 	0.5 	8.45915
1.375 	-0.921875 	0.5 	8.51434
1.39062 	-0.921875 	0.5 	8.52803
1.40625 	-0.921875 	0.5 	8.54277
1.42188 	-0.921875 	0.5 	8.55752
1.4375 	-0.921875 	0.5 	8.60179
1.45312 	-0.921875 	0.5 	8.61247
1.46875 	-0.921875 	0.5 	8.59215
1.48438 	-0.921875 	0.5 	8.59165
-0.5 	-0.90625 	0.5 	8.52335
-0.484375 	-0.90625 	0.5 	8.41134
-0.46875 	-0.90625 	0.5 	8.33046
-0.453125 	-0.90625 	0.5 	8.2091
-0.4375 	-0.90625 	0.5 	8.0858
-0.421875 	-0.90625 	0.5 	7.96654
-0.40625 	-0.90625 	0.5 	7.78893
-0.390625 	-0.90625 	0.5 	7.63038
-0.375 	-0.90625 	0.5 	7.4527
-0.359375 	-0.90625 	0.5 	7.25518
-0.34375 	-0.90625 	0.5 	7.07159
-0.328125 	-0.90625 	0.5 	6.85221
-0.3125 	-0.90625 	0.5 	6.61665
-0.296875 	-0.90625 	0.5 	6.37062
-0.28125 	-0.90625 	0.5 	6.1138
-0.265625 	-0.90625 	0.5 	5.87538
-0.25 	-0.90625 	0.5 	5.57435
-0.234375 	-0.90625 	0.5 	5.26567
-0.21875 	-0.90625 	0.5 	4.97176
-0.203125 	-0.90625 	0.5 	4.64839
-0.1875 	-0.90625 	0.5 	4.32847
-0.171875 	-0.90625 	0.5 	3.96998
-0.15625 	-0.90625 	0.5 	3.60581
-0.140625 	-0.90625 	0.5 	3.30906
-0.125 	-0.90625 	0.5 	2.93217
-0.109375 	-0.90625 	0.5 	2.586
-0.09375 	-0.90625 	0.5 	2.11696
-0.078125 	-0.90625 	0.5 	1.74308
-0.0625 	-0.90625 	0.5 	1.41214
-0.046875 	-0.90625 	0.5 	1.02429
-0.03125 	-0.90625 	0.5 	0.617019
-0.015625 	-0.90625 	0.5 	0.150772
0 	-0.90625 	0.5 	-0.180486
0.015625 	-0.90625 	0.5 	-0.619
0.03125 	-0.90625 	0.5 	-1.05152
0.046875 	-0.90625 	0.5 	-1.51772
0.0625 	-0.90625 	0.5 	-1.92145
0.078125 	-0.90625 	0.5 	-2.29428
0.09375 	-0.90625 	0.5 	-2.68542
0.109375 	-0.90625 	0.5 	-3.01593
0.125 	-0.90625 	0.5 	-3.34259
0.140625 	-0.90625 	0.5 	-3.67044
0.15625 	-0.90625 	0.5 	-4.01303
0.171875 	-0.90625 	0.5 	-4.41155
0.1875 	-0.90625 	0.5 	-4.68809
0.203125 	-0.90625 	0.5 	-5.06236
0.21875 	-0.90625 	0.5 	-5.32397
0.234375 	-0.90625 	0.5 	-5.5598
0.25 	-0.90625 	0.5 	-5.77055
0.265625 	-0.90625 	0.5 	-6.07115
0.28125 	-0.90625 	0.5 	-6.22897
0.296875 	-0.90625 	0.5 	-6.41507
0.3125 	-0.90625 	0.5 	-6.58101
0.328125 	-0.90625 	0.5 	-6.71504
0.34375 	-0.90625 	0.5 	-6.77842
0.359375 	-0.90625 	0.5 	-6.87823
0.375 	-0.90625 	0.5 	-6.74389
0.390625 	-0.90625 	0.5 	-6.98573
0.40625 	-0.90625 	0.5 	-6.94799
0.421875 	-0.90625 	0.5 	-6.90589
0.4375 	-0.90625 	0.5 	-6.96758
0.453125 	-0.90625 	0.5 	-6.86412
0.46875 	-0.90625 	0.5 	-6.82506
0.484375 	-0.90625 	0.5 	-6.61017
0.5 	-0.90625 	0.5 	-6.42181
0.515625 	-0.90625 	0.5 	-6.26516
0.53125 	-0.90625 	0.5 	-6.06898
0.546875 	-0.90625 	0.5 	-5.87958
0.5625 	-0.90625 	0.5 	-5.63297
0.578125 	-0.90625 	0.5 	-5.37
0.59375 	-0.90625 	0.5 	-5.11363
0.609375 	-0.90625 	0.5 	-4.77838
0.625 	-0.90625 	0.5 	-4.56489
0.640625 	-0.90625 	0.5 	-4.30481
0.65625 	-0.90625 	0.5 	-3.86522
0.671875 	-0.90625 	0.5 	-3.50127
0.6875 	-0.90625 	0.5 	-3.32458
0.703125 	-0.90625 	0.5 	-2.68969
0.71875 	-0.90625 	0.5 	-2.3013
0.734375 	-0.90625 	0.5 	-2.01567
0.75 	-0.90625 	0.5 	-1.62152
0.765625 	-0.90625 	0.5 	-1.21634
0.78125 	-0.90625 	0.5 	-0.749135
0.796875 	-0.90625 	0.5 	-0.378686
0.8125 	-0.90625 	0.5 	-0.028647
0.828125 	-0.90625 	0.5 	0.398876
0.84375 	-0.90625 	0.5 	0.817599
0.859375 	-0.90625 	0.5 	1.22343
0.875 	-0.90625 	0.5 	1.56366
0.890625 	-0.90625 	0.5 	1.88917
0.90625 	-0.90625 	0.5 	2.33022
0.921875 	-0.90625 	0.5 	2.76007
0.9375 	-0.90625 	0.5 	3.20794
0.953125 	-0.90625 	0.5 	3.54956
0.96875 	-0.90625 	0.5 	3.93347
0.984375 	-0.90625 	0.5 	4.20875
1 	-0.90625 	0.5 	4.48853
1.01562 	-0.90625 	0.5 	4.79107
1.03125 	-0.90625 	0.5 	5.09362
1.04688 	-0.90625 	0.5 	5.39616
1.0625 	-0.90625 	0.5 	5.68693
1.07812 	-0.90625 	0.5 	5.95977
1.09375 	-0.90625 	0.5 	6.2326
1.10938 	-0.90625 	0.5 	6.47724
1.125 	-0.90625 	0.5 	6.694
1.14062 	-0.90625 	0.5 	6.93187
1.15625 	-0.90625 	0.5 	7.20151
1.17188 	-0.90625 	0.5 	7.3228
1.1875 	-0.90625 	0.5 	7.48815
1.20312 	-0.90625 	0.5 	7.65858
1.21875 	-0.90625 	0.5 	7.77978
1.23438 	-0.90625 	0.5 	7.9148
1.25 	-0.90625 	0.5 	8.04333
1.26562 	-0.90625 	0.5 	8.18208
1.28125 	-0.90625 	0.5 	8.30021
1.29688 	-0.90625 	0.5 	8.4336
1.3125 	-0.90625 	0.5 	8.53873
1.32812 	-0.90625 	0.5 	8.60991
1.34375 	-0.90625 	0.5 	8.66675
1.35938 	-0.90625 	0.5 	8.7174
1.375 	-0.90625 	0.5 	8.75034
1.39062 	-0.90625 	0.5 	8.75348
1.40625 	-0.90625 	0.5 	8.77608
1.42188 	-0.90625 	0.5 	8.77488
1.4375 	-0.90625 	0.5 	8.83595
1.45312 	-0.90625 	0.5 	8.87208
1.46875 	-0.90625 	0.5 	8.83695
1.48438 	-0.90625 	0.5 	8.79828
-0.5 	-0.890625 	0.5 	8.80069
-0.484375 	-0.890625 	0.5 	8.69341
-0.46875 	-0.890625 	0.5 	8.56845
-0.453125 	-0.890625 	0.5 	8.44087
-0.4375 	-0.890625 	0.5 	8.31891
-0.421875 	-0.890625 	0.5 	8.19967
-0.40625 	-0.890625 	0.5 	8.03361
-0.390625 	-0.890625 	0.5 	7.86903
-0.375 	-0.890625 	0.5 	7.70301
-0.359375 	-0.890625 	0.5 	7.49354
-0.34375 	-0.890625 	0.5 	7.29264
-0.328125 	-0.890625 	0.5 	7.06049
-0.3125 	-0.890625 	0.5 	6.83024
-0.296875 	-0.890625 	0.5 	6.58199
-0.28125 	-0.890625 	0.5 	6.30415
-0.265625 	-0.890625 	0.5 	6.04922
-0.25 	-0.890625 	0.5 	5.7436
-0.234375 	-0.890625 	0.5 	5.44358
-0.21875 	-0.890625 	0.5 	5.11123
-0.203125 	-0.890625 	0.5 	4.79568
-0.1875 	-0.890625 	0.5 	4.46769
-0.171875 	-0.890625 	0.5 	4.12111
-0.15625 	-0.890625 	0.5 	3.74325
-0.140625 	-0.890625 	0.5 	3.39443
-0.125 	-0.890625 	0.5 	3.05269
-0.109375 	-0.890625 	0.5 	2.62516
-0.09375 	-0.890625 	0.5 	2.23934
-0.078125 	-0.890625 	0.5 	1.82612
-0.0625 	-0.890625 	0.5 	1.40674
-0.046875 	-0.890625 	0.5 	0.959017
-0.03125 	-0.890625 	0.5 	0.529473
-0.015625 	-0.890625 	0.5 	0.0306269
0 	-0.890625 	0.5 	-0.276318
0.015625 	-0.890625 	0.5 	-0.788213
0.03125 	-0.890625 	0.5 	-1.21305
0.046875 	-0.890625 	0.5 	-1.67184
0.0625 	-0.890625 	0.5 	-2.08518
0.078125 	-0.890625 	0.5 	-2.45594
0.09375 	-0.890625 	0.5 	-2.90808
0.109375 	-0.890625 	0.5 	-3.24359
0.125 	-0.890625 	0.5 	-3.63168