-0.5 	-1 	0.5 	-4.16297
-0.484375 	-1 	0.5 	-4.23179
-0.46875 	-1 	0.5 	-4.30646
-0.453125 	-1 	0.5 	-4.44032
-0.4375 	-1 	0.5 	-4.55876
-0.421875 	-1 	0.5 	-4.66316
-0.40625 	-1 	0.5 	-4.76756
-0.390625 	-1 	0.5 	-4.87197
-0.375 	-1 	0.5 	-5.0083
-0.359375 	-1 	0.5 	-5.18335
-0.34375 	-1 	0.5 	-5.38613
-0.328125 	-1 	0.5 	-5.56985
-0.3125 	-1 	0.5 	-5.7341
-0.296875 	-1 	0.5 	-5.87299
-0.28125 	-1 	0.5 	-6.05181
-0.265625 	-1 	0.5 	-6.26846
-0.25 	-1 	0.5 	-6.47137
-0.234375 	-1 	0.5 	-6.61865
-0.21875 	-1 	0.5 	-6.87902
-0.203125 	-1 	0.5 	-7.10482
-0.1875 	-1 	0.5 	-7.35853
-0.171875 	-1 	0.5 	-7.60202
-0.15625 	-1 	0.5 	-7.84645
-0.140625 	-1 	0.5 	-8.06782
-0.125 	-1 	0.5 	-8.3015
-0.109375 	-1 	0.5 	-8.53518
-0.09375 	-1 	0.5 	-8.76885
-0.078125 	-1 	0.5 	-9.02549
-0.0625 	-1 	0.5 	-9.31482
-0.046875 	-1 	0.5 	-9.60456
-0.03125 	-1 	0.5 	-9.90432
-0.015625 	-1 	0.5 	-10.1747
0 	-1 	0.5 	-10.4121
0.015625 	-1 	0.5 	-10.6418
0.03125 	-1 	0.5 	-10.92
0.046875 	-1 	0.5 	-11.2423
0.0625 	-1 	0.5 	-11.4978
0.078125 	-1 	0.5 	-11.7558
0.09375 	-1 	0.5 	-12.0316
0.109375 	-1 	0.5 	-12.3054
0.125 	-1 	0.5 	-12.5656
0.140625 	-1 	0.5 	-12.8182
0.15625 	-1 	0.5 	-13.0047
0.171875 	-1 	0.5 	-13.301
0.1875 	-1 	0.5 	-13.5201
0.203125 	-1 	0.5 	-13.7923
0.21875 	-1 	0.5 	-13.9893
0.234375 	-1 	0.5 	-14.2229
0.25 	-1 	0.5 	-14.4247
0.265625 	-1 	0.5 	-14.6182
0.28125 	-1 	0.5 	-14.7948
0.296875 	-1 	0.5 	-14.9583
0.3125 	-1 	0.5 	-15.1547
0.328125 	-1 	0.5 	-15.266
0.34375 	-1 	0.5 	-15.4738
0.359375 	-1 	0.5 	-15.6128
0.375 	-1 	0.5 	-15.7706
0.390625 	-1 	0.5 	-15.9194
0.40625 	-1 	0.5 	-16.0296
0.421875 	-1 	0.5 	-16.1589
0.4375 	-1 	0.5 	-16.2289
0.453125 	-1 	0.5 	-16.2975
0.46875 	-1 	0.5 	-16.3288
0.484375 	-1 	0.5 	-16.3807
0.5 	-1 	0.5 	-16.4307
0.515625 	-1 	0.5 	-16.4414
0.53125 	-1 	0.5 	-16.4515
0.546875 	-1 	0.5 	-16.4827
0.5625 	-1 	0.5 	-16.4998
0.578125 	-1 	0.5 	-16.4669
0.59375 	-1 	0.5 	-16.4547
0.609375 	-1 	0.5 	-16.4415
0.625 	-1 	0.5 	-16.393
0.640625 	-1 	0.5 	-16.3472
0.65625 	-1 	0.5 	-16.3028
0.671875 	-1 	0.5 	-16.1901
0.6875 	-1 	0.5 	-16.1034
0.703125 	-1 	0.5 	-16.0294
0.71875 	-1 	0.5 	-15.9551
0.734375 	-1 	0.5 	-15.8548
0.75 	-1 	0.5 	-15.7251
0.765625 	-1 	0.5 	-15.6096
0.78125 	-1 	0.5 	-15.4763
0.796875 	-1 	0.5 	-15.3479
0.8125 	-1 	0.5 	-15.2029
0.828125 	-1 	0.5 	-15.0926
0.84375 	-1 	0.5 	-14.9309
0.859375 	-1 	0.5 	-14.7874
0.875 	-1 	0.5 	-14.6257
0.890625 	-1 	0.5 	-14.4568
0.90625 	-1 	0.5 	-14.3163
0.921875 	-1 	0.5 	-14.2068
0.9375 	-1 	0.5 	-14.0544
0.953125 	-1 	0.5 	-13.8797
0.96875 	-1 	0.5 	-13.667
0.984375 	-1 	0.5 	-13.5193
1 	-1 	0.5 	-13.3573
1.01562 	-1 	0.5 	-13.201
1.03125 	-1 	0.5 	-13.032
1.04688 	-1 	0.5 	-12.8704
1.0625 	-1 	0.5 	-12.7117
1.07812 	-1 	0.5 	-12.5556
1.09375 	-1 	0.5 	-12.3994
1.10938 	-1 	0.5 	-12.2488
1.125 	-1 	0.5 	-12.1532
1.14062 	-1 	0.5 	-12.0118
1.15625 	-1 	0.5 	-11.8838
1.17188 	-1 	0.5 	-11.7243
1.1875 	-1 	0.5 	-11.5759
1.20312 	-1 	0.5 	-11.447
1.21875 	-1 	0.5 	-11.3193
1.23438 	-1 	0.5 	-11.1681
1.25 	-1 	0.5 	-11.0335
1.26562 	-1 	0.5 	-10.9264
1.28125 	-1 	0.5 	-10.8523
1.29688 	-1 	0.5 	-10.7162
1.3125 	-1 	0.5 	-10.6057
1.32812 	-1 	0.5 	-10.494
1.34375 	-1 	0.5 	-10.3919
1.35938 	-1 	0.5 	-10.2955
1.375 	-1 	0.5 	-10.2028
1.39062 	-1 	0.5 	-10.1253
1.40625 	-1 	0.5 	-10.0478
1.42188 	-1 	0.5 	-9.96941
1.4375 	-1 	0.5 	-9.88753
1.45312 	-1 	0.5 	-9.82855
1.46875 	-1 	0.5 	-9.75391
1.48438 	-1 	0.5 	-9.70113
-0.5 	-0.984375 	0.5 	-3.99648
-0.484375 	-0.984375 	0.5 	-4.06978
-0.46875 	-0.984375 	0.5 	-4.17389
-0.453125 	-0.984375 	0.5 	-4.26068
-0.4375 	-0.984375 	0.5 	-4.37284
-0.421875 	-0.984375 	0.5 	-4.44245
-0.40625 	-0.984375 	0.5 	-4.49759
-0.390625 	-0.984375 	0.5 	-4.67427
-0.375 	-0.984375 	0.5 	-4.90889
-0.359375 	-0.984375 	0.5 	-5.05099
-0.34375 	-0.984375 	0.5 	-5.20735
-0.328125 	-0.984375 	0.5 	-5.38076
-0.3125 	-0.984375 	0.5 	-5.56959
-0.296875 	-0.984375 	0.5 	-5.7091
-0.28125 	-0.984375 	0.5 	-5.86464
-0.265625 	-0.984375 	0.5 	-6.0693
-0.25 	-0.984375 	0.5 	-6.2898
-0.234375 	-0.984375 	0.5 	-6.48912
-0.21875 	-0.984375 	0.5 	-6.74717
-0.203125 	-0.984375 	0.5 	-7.02415
-0.1875 	-0.984375 	0.5 	-7.24506
-0.171875 	-0.984375 	0.5 	-7.50404
-0.15625 	-0.984375 	0.5 	-7.72865
-0.140625 	-0.984375 	0.5 	-7.9857
-0.125 	-0.984375 	0.5 	-8.2166
-0.109375 	-0.984375 	0.5 	-8.44384
-0.09375 	-0.984375 	0.5 	-8.701
-0.078125 	-0.984375 	0.5 	-9
-0.0625 	-0.984375 	0.5 	-9.25792
-0.046875 	-0.984375 	0.5 	-9.55982
-0.03125 	-0.984375 	0.5 	-9.90821
-0.015625 	-0.984375 	0.5 	-10.2269
0 	-0.984375 	0.5 	-10.4364
0.015625 	-0.984375 	0.5 	-10.6586
0.03125 	-0.984375 	0.5 	-10.9418
0.046875 	-0.984375 	0.5 	-11.2435
0.0625 	-0.984375 	0.5 	-11.5775
0.078125 	-0.984375 	0.5 	-11.8583
0.09375 	-0.984375 	0.5 	-12.1292
0.109375 	-0.984375 	0.5 	-12.4264
0.125 	-0.984375 	0.5 	-12.6746
0.140625 	-0.984375 	0.5 	-12.8629
0.15625 	-0.984375 	0.5 	-13.1544
0.171875 	-0.984375 	0.5 	-13.4374
0.1875 	-0.984375 	0.5 	-13.6772
0.203125 	-0.984375 	0.5 	-13.9195
0.21875 	-0.984375 	0.5 	-14.16
0.234375 	-0.984375 	0.5 	-14.3678
0.25 	-0.984375 	0.5 	-14.5799
0.265625 	-0.984375 	0.5 	-14.7996
0.28125 	-0.984375 	0.5 	-15.0615
0.296875 	-0.984375 	0.5 	-15.2386
0.3125 	-0.984375 	0.5 	-15.3978
0.328125 	-0.984375 	0.5 	-15.5187
0.34375 	-0.984375 	0.5 	-15.6881
0.359375 	-0.984375 	0.5 	-15.8656
0.375 	-0.984375 	0.5 	-16.0658
0.390625 	-0.984375 	0.5 	-16.155
0.40625 	-0.984375 	0.5 	-16.2851
0.421875 	-0.984375 	0.5 	-16.3936
0.4375 	-0.984375 	0.5 	-16.4466
0.453125 	-0.984375 	0.5 	-16.5094
0.46875 	-0.984375 	0.5 	-16.5742
0.484375 	-0.984375 	0.5 	-16.6099
0.5 	-0.984375 	0.5 	-16.5717
0.515625 	-0.984375 	0.5 	-16.6725
0.53125 	-0.984375 	0.5 	-16.7689
0.546875 	-0.984375 	0.5 	-16.7433
0.5625 	-0.984375 	0.5 	-16.74
0.578125 	-0.984375 	0.5 	-16.7214
0.59375 	-0.984375 	0.5 	-16.703
0.609375 	-0.984375 	0.5 	-16.6881
0.625 	-0.984375 	0.5 	-16.638
0.640625 	-0.984375 	0.5 	-16.5924
0.65625 	-0.984375 	0.5 	-16.5448
0.671875 	-0.984375 	0.5 	-16.4483
0.6875 	-0.984375 	0.5 	-16.3401
0.703125 	-0.984375 	0.5 	-16.2394
0.71875 	-0.984375 	0.5 	-16.1458
0.734375 	-0.984375 	0.5 	-16.0285
0.75 	-0.984375 	0.5 	-15.9182
0.765625 	-0.984375 	0.5 	-15.7835
0.78125 	-0.984375 	0.5 	-15.6639
0.796875 	-0.984375 	0.5 	-15.5277
0.8125 	-0.984375 	0.5 	-15.391
0.828125 	-0.984375 	0.5 	-15.2439
0.84375 	-0.984375 	0.5 	-15.0822
0.859375 	-0.984375 	0.5 	-14.925
0.875 	-0.984375 	0.5 	-14.7466
0.890625 	-0.984375 	0.5 	-14.5906
0.90625 	-0.984375 	0.5 	-14.4381
0.921875 	-0.984375 	0.5 	-14.2858
0.9375 	-0.984375 	0.5 	-14.1345
0.953125 	-0.984375 	0.5 	-13.9801
0.96875 	-0.984375 	0.5 	-13.7773
0.984375 	-0.984375 	0.5 	-13.5774
1 	-0.984375 	0.5 	-13.4418
1.01562 	-0.984375 	0.5 	-13.2466
1.03125 	-0.984375 	0.5 	-13.0983
1.04688 	-0.984375 	0.5 	-12.9321
1.0625 	-0.984375 	0.5 	-12.7426
1.07812 	-0.984375 	0.5 	-12.6066
1.09375 	-0.984375 	0.5 	-12.4499
1.10938 	-0.984375 	0.5 	-12.2914
1.125 	-0.984375 	0.5 	-12.1392
1.14062 	-0.984375 	0.5 	-12.01
1.15625 	-0.984375 	0.5 	-11.8798
1.17188 	-0.984375 	0.5 	-11.7089
1.1875 	-0.984375 	0.5 	-11.5685
1.20312 	-0.984375 	0.5 	-11.4228
1.21875 	-0.984375 	0.5 	-11.2601
1.23438 	-0.984375 	0.5 	-11.0796
1.25 	-0.984375 	0.5 	-10.9851
1.26562 	-0.984375 	0.5 	-10.8637
1.28125 	-0.984375 	0.5 	-10.7763
1.29688 	-0.984375 	0.5 	-10.6641
1.3125 	-0.984375 	0.5 	-10.557
1.32812 	-0.984375 	0.5 	-10.4331
1.34375 	-0.984375 	0.5 	-10.3317
1.35938 	-0.984375 	0.5 	-10.245
1.375 	-0.984375 	0.5 	-10.1256
1.39062 	-0.984375 	0.5 	-10.0438
1.40625 	-0.984375 	0.5 	-9.96791
1.42188 	-0.984375 	0.5 	-9.90424
1.4375 	-0.984375 	0.5 	-9.84062
1.45312 	-0.984375 	0.5 	-9.76938
1.46875 	-0.984375 	0.5 	-9.70954
1.48438 	-0.984375 	0.5 	-9.65317
-0.5 	-0.96875 	0.5 	-3.81842
-0.484375 	-0.96875 	0.5 	-3.91
-0.46875 	-0.96875 	0.5 	-3.98436
-0.453125 	-0.96875 	0.5 	-4.04377
-0.4375 	-0.96875 	0.5 	-4.17865
-0.421875 	-0.96875 	0.5 	-4.27624
-0.40625 	-0.96875 	0.5 	-4.34456
-0.390625 	-0.96875 	0.5 	-4.55611
-0.375 	-0.96875 	0.5 	-4.77813
-0.359375 	-0.96875 	0.5 	-4.89485
-0.34375 	-0.96875 	0.5 	-5.09774
-0.328125 	-0.96875 	0.5 	-5.23679
-0.3125 	-0.96875 	0.5 	-5.37583
-0.296875 	-0.96875 	0.5 	-5.54521
-0.28125 	-0.96875 	0.5 	-5.74066
-0.265625 	-0.96875 	0.5 	-5.93321
-0.25 	-0.96875 	0.5 	-6.10724
-0.234375 	-0.96875 	0.5 	-6.34235
-0.21875 	-0.96875 	0.5 	-6.61298
-0.203125 	-0.96875 	0.5 	-6.89255
-0.1875 	-0.96875 	0.5 	-7.12379
-0.171875 	-0.96875 	0.5 	-7.37125
-0.15625 	-0.96875 	0.5 	-7.59492
-0.140625 	-0.96875 	0.5 	-7.85289
-0.125 	-0.96875 	0.5 	-8.14747
-0.109375 	-0.96875 	0.5 	-8.37727
-0.09375 	-0.96875 	0.5 	-8.65597
-0.078125 	-0.96875 	0.5 	-8.9591
-0.0625 	-0.96875 	0.5 	-9.26604
-0.046875 	-0.96875 	0.5 	-9.61187
-0.03125 	-0.96875 	0.5 	-9.98954
-0.015625 	-0.96875 	0.5 	-10.2162
0 	-0.96875 	0.5 	-10.5755
0.015625 	-0.96875 	0.5 	-10.7711
0.03125 	-0.96875 	0.5 	-10.9978
0.046875 	-0.96875 	0.5 	-11.3964
0.0625 	-0.96875 	0.5 	-11.6346
0.078125 	-0.96875 	0.5 	-11.9822
0.09375 	-0.96875 	0.5 	-12.2564
0.109375 	-0.96875 	0.5 	-12.5294
0.125 	-0.96875 	0.5 	-12.7763
0.140625 	-0.96875 	0.5 	-13.0012
0.15625 	-0.96875 	0.5 	-13.2902
0.171875 	-0.96875 	0.5 	-13.6128
0.1875 	-0.96875 	0.5 	-13.9102
0.203125 	-0.96875 	0.5 	-14.106
0.21875 	-0.96875 	0.5 	-14.3429
0.234375 	-0.96875 	0.5 	-14.5548
0.25 	-0.96875 	0.5 	-14.7643
0.265625 	-0.96875 	0.5 	-14.9885
0.28125 	-0.96875 	0.5 	-15.2691
0.296875 	-0.96875 	0.5 	-15.4223
0.3125 	-0.96875 	0.5 	-15.6668
0.328125 	-0.96875 	0.5 	-15.7767
0.34375 	-0.96875 	0.5 	-15.9427
0.359375 	-0.96875 	0.5 	-16.1273
0.375 	-0.96875 	0.5 	-16.2667
0.390625 	-0.96875 	0.5 	-16.4145
0.40625 	-0.96875 	0.5 	-16.5415
0.421875 	-0.96875 	0.5 	-16.5904
0.4375 	-0.96875 	0.5 	-16.7029
0.453125 	-0.96875 	0.5 	-16.7647
0.46875 	-0.96875 	0.5 	-16.9349
0.484375 	-0.96875 	0.5 	-16.8047
0.5 	-0.96875 	0.5 	-16.9826
0.515625 	-0.96875 	0.5 	-17.0481
0.53125 	-0.96875 	0.5 	-17.0418
0.546875 	-0.96875 	0.5 	-17.0161
0.5625 	-0.96875 	0.5 	-17.0106
0.578125 	-0.96875 	0.5 	-16.9629
0.59375 	-0.96875 	0.5 	-16.9437
0.609375 	-0.96875 	0.5 	-16.9338
0.625 	-0.96875 	0.5 	-16.8827
0.640625 	-0.96875 	0.5 	-16.8341
0.65625 	-0.96875 	0.5 	-16.7783
0.671875 	-0.96875 	0.5 	-16.7014
0.6875 	-0.96875 	0.5 	-16.6006
0.703125 	-0.96875 	0.5 	-16.4683
0.71875 	-0.96875 	0.5 	-16.3326
0.734375 	-0.96875 	0.5 	-16.2289
0.75 	-0.96875 	0.5 	-16.118
0.765625 	-0.96875 	0.5 	-15.9611
0.78125 	-0.96875 	0.5 	-15.8244
0.796875 	-0.96875 	0.5 	-15.6902
0.8125 	-0.96875 	0.5 	-15.5394
0.828125 	-0.96875 	0.5 	-15.4073
0.84375 	-0.96875 	0.5 	-15.2542
0.859375 	-0.96875 	0.5 	-15.0547
0.875 	-0.96875 	0.5 	-14.907
0.890625 	-0.96875 	0.5 	-14.7396
0.90625 	-0.96875 	0.5 	-14.5419
0.921875 	-0.96875 	0.5 	-14.3905
0.9375 	-0.96875 	0.5 	-14.2418
0.953125 	-0.96875 	0.5 	-14.0441
0.96875 	-0.96875 	0.5 	-13.8305
0.984375 	-0.96875 	0.5 	-13.6776
1 	-0.96875 	0.5 	-13.4925
1.01562 	-0.96875 	0.5 	-13.3283
1.03125 	-0.96875 	0.5 	-13.1551
1.04688 	-0.96875 	0.5 	-12.9793
1.0625 	-0.96875 	0.5 	-12.7857
1.07812 	-0.96875 	0.5 	-12.632
1.09375 	-0.96875 	0.5 	-12.4643
1.10938 	-0.96875 	0.5 	-12.2801
1.125 	-0.96875 	0.5 	-12.1274
1.14062 	-0.96875 	0.5 	-12.0286
1.15625 	-0.96875 	0.5 	-11.8518
1.17188 	-0.96875 	0.5 	-11.645
1.1875 	-0.96875 	0.5 	-11.4529
1.20312 	-0.96875 	0.5 	-11.369
1.21875 	-0.96875 	0.5 	-11.2198
1.23438 	-0.96875 	0.5 	-11.0609
1.25 	-0.96875 	0.5 	-10.939
1.26562 	-0.96875 	0.5 	-10.8278
1.28125 	-0.96875 	0.5 	-10.7085
1.29688 	-0.96875 	0.5 	-10.5928
1.3125 	-0.96875 	0.5 	-10.4876
1.32812 	-0.96875 	0.5 	-10.3723
1.34375 	-0.96875 	0.5 	-10.2832
1.35938 	-0.96875 	0.5 	-10.1945
1.375 	-0.96875 	0.5 	-10.0563
1.39062 	-0.96875 	0.5 	-9.97378
1.40625 	-0.96875 	0.5 	-9.88481
1.42188 	-0.96875 	0.5 	-9.81222
1.4375 	-0.96875 	0.5 	-9.76586
1.45312 	-0.96875 	0.5 	-9.71761
1.46875 	-0.96875 	0.5 	-9.65853
1.48438 	-0.96875 	0.5 	-9.5873
-0.5 	-0.953125 	0.5 	-3.63244
-0.484375 	-0.953125 	0.5 	-3.68916
-0.46875 	-0.953125 	0.5 	-3.77293
-0.453125 	-0.953125 	0.5 	-3.83254
-0.4375 	-0.953125 	0.5 	-3.97116
-0.421875 	-0.953125 	0.5 	-4.06947
-0.40625 	-0.953125 	0.5 	-4.17298
-0.390625 	-0.953125 	0.5 	-4.3798
-0.375 	-0.953125 	0.5 	-4.60707
-0.359375 	-0.953125 	0.5 	-4.7387
-0.34375 	-0.953125 	0.5 	-4.92294
-0.328125 	-0.953125 	0.5 	-5.07121
-0.3125 	-0.953125 	0.5 	-5.21199
-0.296875 	-0.953125 	0.5 	-5.3783
-0.28125 	-0.953125 	0.5 	-5.58317
-0.265625 	-0.953125 	0.5 	-5.73504
-0.25 	-0.953125 	0.5 	-5.96334
-0.234375 	-0.953125 	0.5 	-6.20167
-0.21875 	-0.953125 	0.5 	-6.4295
-0.203125 	-0.953125 	0.5 	-6.71473
-0.1875 	-0.953125 	0.5 	-7.00111
-0.171875 	-0.953125 	0.5 	-7.26561
-0.15625 	-0.953125 	0.5 	-7.52938
-0.140625 	-0.953125 	0.5 	-7.79315
-0.125 	-0.953125 	0.5 	-8.05692
-0.109375 	-0.953125 	0.5 	-8.3178
-0.09375 	-0.953125 	0.5 	-8.60079
-0.078125 	-0.953125 	0.5 	-8.88918
-0.0625 	-0.953125 	0.5 	-9.20503
-0.046875 	-0.953125 	0.5 	-9.5518
-0.03125 	-0.953125 	0.5 	-9.92668
-0.015625 	-0.953125 	0.5 	-10.2173
0 	-0.953125 	0.5 	-10.5315
0.015625 	-0.953125 	0.5 	-10.7203
0.03125 	-0.953125 	0.5 	-11.0204
0.046875 	-0.953125 	0.5 	-11.4201
0.0625 	-0.953125 	0.5 	-11.7176
0.078125 	-0.953125 	0.5 	-12.0588
0.09375 	-0.953125 	0.5 	-12.3363
0.109375 	-0.953125 	0.5 	-12.5965
0.125 	-0.953125 	0.5 	-12.8382
0.140625 	-0.953125 	0.5 	-13.1438
0.15625 	-0.953125 	0.5 	-13.4458
0.171875 	-0.953125 	0.5 	-13.7629
0.1875 	-0.953125 	0.5 	-14.0294
0.203125 	-0.953125 	0.5 	-14.2619
0.21875 	-0.953125 	0.5 	-14.5502
0.234375 	-0.953125 	0.5 	-14.7331
0.25 	-0.953125 	0.5 	-14.9611
0.265625 	-0.953125 	0.5 	-15.1774
0.28125 	-0.953125 	0.5 	-15.3992
0.296875 	-0.953125 	0.5 	-15.6672
0.3125 	-0.953125 	0.5 	-15.9264
0.328125 	-0.953125 	0.5 	-16.0751
0.34375 	-0.953125 	0.5 	-16.2427
0.359375 	-0.953125 	0.5 	-16.4028
0.375 	-0.953125 	0.5 	-16.5478
0.390625 	-0.953125 	0.5 	-16.662
0.40625 	-0.953125 	0.5 	-16.7567
0.421875 	-0.953125 	0.5 	-16.8278
0.4375 	-0.953125 	0.5 	-16.9664
0.453125 	-0.953125 	0.5 	-17.0708
0.46875 	-0.953125 	0.5 	-17.1511
0.484375 	-0.953125 	0.5 	-17.1885
0.5 	-0.953125 	0.5 	-17.3443
0.515625 	-0.953125 	0.5 	-17.3308
0.53125 	-0.953125 	0.5 	-17.3208
0.546875 	-0.953125 	0.5 	-17.2937
0.5625 	-0.953125 	0.5 	-17.2913
0.578125 	-0.953125 	0.5 	-17.2464
0.59375 	-0.953125 	0.5 	-17.196
0.609375 	-0.953125 	0.5 	-17.1402
0.625 	-0.953125 	0.5 	-17.087
0.640625 	-0.953125 	0.5 	-17.0995
0.65625 	-0.953125 	0.5 	-17.0503
0.671875 	-0.953125 	0.5 	-16.9547
0.6875 	-0.953125 	0.5 	-16.8203
0.703125 	-0.953125 	0.5 	-16.6831
0.71875 	-0.953125 	0.5 	-16.5113
0.734375 	-0.953125 	0.5 	-16.4099
0.75 	-0.953125 	0.5 	-16.294
0.765625 	-0.953125 	0.5 	-16.1558
0.78125 	-0.953125 	0.5 	-16.0251
0.796875 	-0.953125 	0.5 	-15.8832
0.8125 	-0.953125 	0.5 	-15.7262
0.828125 	-0.953125 	0.5 	-15.5711
0.84375 	-0.953125 	0.5 	-15.4065
0.859375 	-0.953125 	0.5 	-15.24
0.875 	-0.953125 	0.5 	-15.0525
0.890625 	-0.953125 	0.5 	-14.8765
0.90625 	-0.953125 	0.5 	-14.6678
0.921875 	-0.953125 	0.5 	-14.5006
0.9375 	-0.953125 	0.5 	-14.2698
0.953125 	-0.953125 	0.5 	-14.1009
0.96875 	-0.953125 	0.5 	-13.9259
0.984375 	-0.953125 	0.5 	-13.7303
1 	-0.953125 	0.5 	-13.5553
1.01562 	-0.953125 	0.5 	-13.3821
1.03125 	-0.953125 	0.5 	-13.1939
1.04688 	-0.953125 	0.5 	-12.9964
1.0625 	-0.953125 	0.5 	-12.817
1.07812 	-0.953125 	0.5 	-12.6339
1.09375 	-0.953125 	0.5 	-12.4432
1.10938 	-0.953125 	0.5 	-12.276
1.125 	-0.953125 	0.5 	-12.1097
1.14062 	-0.953125 	0.5 	-11.9786
1.15625 	-0.953125 	0.5 	-11.8238
1.17188 	-0.953125 	0.5 	-11.6207
1.1875 	-0.953125 	0.5 	-11.3825
1.20312 	-0.953125 	0.5 	-11.308
1.21875 	-0.953125 	0.5 	-11.1504
1.23438 	-0.953125 	0.5 	-11.0316
1.25 	-0.953125 	0.5 	-10.9097
1.26562 	-0.953125 	0.5 	-10.7887
1.28125 	-0.953125 	0.5 	-10.6363
1.29688 	-0.953125 	0.5 	-10.4798
1.3125 	-0.953125 	0.5 	-10.3931
1.32812 	-0.953125 	0.5 	-10.301
1.34375 	-0.953125 	0.5 	-10.208
1.35938 	-0.953125 	0.5 	-10.1032
1.375 	-0.953125 	0.5 	-10.0034
1.39062 	-0.953125 	0.5 	-9.90361
1.40625 	-0.953125 	0.5 	-9.82877
1.42188 	-0.953125 	0.5 	-9.76972
1.4375 	-0.953125 	0.5 	-9.69078
1.45312 	-0.953125 	0.5 	-9.63369
1.46875 	-0.953125 	0.5 	-9.56215
1.48438 	-0.953125 	0.5 	-9.49415
-0.5 	-0.9375 	0.5 	-3.37059
-0.484375 	-0.9375 	0.5 	-3.40978
-0.46875 	-0.9375 	0.5 	-3.54427
-0.453125 	-0.9375 	0.5 	-3.62231
-0.4375 	-0.9375 	0.5 	-3.74162
-0.421875 	-0.9375 	0.5 	-3.85744
-0.40625 	-0.9375 	0.5 	-3.9766
-0.390625 	-0.9375 	0.5 	-4.16221
-0.375 	-0.9375 	0.5 	-4.38336
-0.359375 	-0.9375 	0.5 	-4.58256
-0.34375 	-0.9375 	0.5 	-4.72717
-0.328125 	-0.9375 	0.5 	-4.85083
-0.3125 	-0.9375 	0.5 	-4.98006
-0.296875 	-0.9375 	0.5 	-5.17629
-0.28125 	-0.9375 	0.5 	-5.4044
-0.265625 	-0.9375 	0.5 	-5.64612
-0.25 	-0.9375 	0.5 	-5.83758
-0.234375 	-0.9375 	0.5 	-6.08533
-0.21875 	-0.9375 	0.5 	-6.34743
-0.203125 	-0.9375 	0.5 	-6.57993
-0.1875 	-0.9375 	0.5 	-6.8792
-0.171875 	-0.9375 	0.5 	-7.17679
-0.15625 	-0.9375 	0.5 	-7.49086
-0.140625 	-0.9375 	0.5 	-7.77402
-0.125 	-0.9375 	0.5 	-7.97741
-0.109375 	-0.9375 	0.5 	-8.21949
-0.09375 	-0.9375 	0.5 	-8.5323
-0.078125 	-0.9375 	0.5 	-8.82504
-0.0625 	-0.9375 	0.5 	-9.14684
-0.046875 	-0.9375 	0.5 	-9.49314
-0.03125 	-0.9375 	0.5 	-9.84078
-0.015625 	-0.9375 	0.5 	-10.1895
0 	-0.9375 	0.5 	-10.4716
0.015625 	-0.9375 	0.5 	-10.7779
0.03125 	-0.9375 	0.5 	-11.0983
0.046875 	-0.9375 	0.5 	-11.423
0.0625 	-0.9375 	0.5 	-11.7712
0.078125 	-0.9375 	0.5 	-12.027
0.09375 	-0.9375 	0.5 	-12.3881
0.109375 	-0.9375 	0.5 	-12.6772
0.125 	-0.9375 	0.5 	-12.9606
0.140625 	-0.9375 	0.5 	-13.2703
0.15625 	-0.9375 	0.5 	-13.6006
0.171875 	-0.9375 	0.5 	-13.917
0.1875 	-0.9375 	0.5 	-14.1883
0.203125 	-0.9375 	0.5 	-14.459
0.21875 	-0.9375 	0.5 	-14.7478
0.234375 	-0.9375 	0.5 	-14.9446
0.25 	-0.9375 	0.5 	-15.1636
0.265625 	-0.9375 	0.5 	-15.3952
0.28125 	-0.9375 	0.5 	-15.6229
0.296875 	-0.9375 	0.5 	-15.8859
0.3125 	-0.9375 	0.5 	-16.166
0.328125 	-0.9375 	0.5 	-16.3659
0.34375 	-0.9375 	0.5 	-16.5166
0.359375 	-0.9375 	0.5 	-16.6786
0.375 	-0.9375 	0.5 	-16.8377
0.390625 	-0.9375 	0.5 	-16.9325
0.40625 	-0.9375 	0.5 	-17.0808
0.421875 	-0.9375 	0.5 	-17.1826
0.4375 	-0.9375 	0.5 	-17.2318
0.453125 	-0.9375 	0.5 	-17.3246
0.46875 	-0.9375 	0.5 	-17.255
0.484375 	-0.9375 	0.5 	-17.5371
0.5 	-0.9375 	0.5 	-17.5967
0.515625 	-0.9375 	0.5 	-17.6257
0.53125 	-0.9375 	0.5 	-17.521
0.546875 	-0.9375 	0.5 	-17.5464
0.5625 	-0.9375 	0.5 	-17.5725
0.578125 	-0.9375 	0.5 	-17.5332
0.59375 	-0.9375 	0.5 	-17.4877
0.609375 	-0.9375 	0.5 	-17.3944
0.625 	-0.9375 	0.5 	-17.3591
0.640625 	-0.9375 	0.5 	-17.3511
0.65625 	-0.9375 	0.5 	-17.2776
0.671875 	-0.9375 	0.5 	-17.2355
0.6875 	-0.9375 	0.5 	-17.041
0.703125 	-0.9375 	0.5 	-16.9026
0.71875 	-0.9375 	0.5 	-16.7384
0.734375 	-0.9375 	0.5 	-16.6363
0.75 	-0.9375 	0.5 	-16.4813
0.765625 	-0.9375 	0.5 	-16.3509
0.78125 	-0.9375 	0.5 	-16.2911
0.796875 	-0.9375 	0.5 	-16.0896
0.8125 	-0.9375 	0.5 	-15.8816
0.828125 	-0.9375 	0.5 	-15.6863
0.84375 	-0.9375 	0.5 	-15.5255
0.859375 	-0.9375 	0.5 	-15.4187
0.875 	-0.9375 	0.5 	-15.2127
0.890625 	-0.9375 	0.5 	-15.0072
0.90625 	-0.9375 	0.5 	-14.8012
0.921875 	-0.9375 	0.5 	-14.5943
0.9375 	-0.9375 	0.5 	-14.4038
0.953125 	-0.9375 	0.5 	-14.1859
0.96875 	-0.9375 	0.5 	-13.9904
0.984375 	-0.9375 	0.5 	-13.8033
1 	-0.9375 	0.5 	-13.6182
1.01562 	-0.9375 	0.5 	-13.4116
1.03125 	-0.9375 	0.5 	-13.2203
1.04688 	-0.9375 	0.5 	-13.0275
1.0625 	-0.9375 	0.5 	-12.8287
1.07812 	-0.9375 	0.5 	-12.6452
1.09375 	-0.9375 	0.5 	-12.4583
1.10938 	-0.9375 	0.5 	-12.2718
1.125 	-0.9375 	0.5 	-12.1183
1.14062 	-0.9375 	0.5 	-11.9708
1.15625 	-0.9375 	0.5 	-11.7937
1.17188 	-0.9375 	0.5 	-11.5864
1.1875 	-0.9375 	0.5 	-11.3736
1.20312 	-0.9375 	0.5 	-11.2569
1.21875 	-0.9375 	0.5 	-11.1515
1.23438 	-0.9375 	0.5 	-10.9809
1.25 	-0.9375 	0.5 	-10.8662
1.26562 	-0.9375 	0.5 	-10.7052
1.28125 	-0.9375 	0.5 	-10.5641
1.29688 	-0.9375 	0.5 	-10.426
1.3125 	-0.9375 	0.5 	-10.3336
1.32812 	-0.9375 	0.5 	-10.2232
1.34375 	-0.9375 	0.5 	-10.137
1.35938 	-0.9375 	0.5 	-10.0468
1.375 	-0.9375 	0.5 	-9.93
1.39062 	-0.9375 	0.5 	-9.82584
1.40625 	-0.9375 	0.5 	-9.74683
1.42188 	-0.9375 	0.5 	-9.66776
1.4375 	-0.9375 	0.5 	-9.59076
1.45312 	-0.9375 	0.5 	-9.54238
1.46875 	-0.9375 	0.5 	-9.48519
1.48438 	-0.9375 	0.5 	-9.40807
-0.5 	-0.921875 	0.5 	-3.18659
-0.484375 	-0.921875 	0.5 	-3.25966
-0.46875 	-0.921875 	0.5 	-3.33273
-0.453125 	-0.921875 	0.5 	-3.40581
-0.4375 	-0.921875 	0.5 	-3.53262
-0.421875 	-0.921875 	0.5 	-3.67054
-0.40625 	-0.921875 	0.5 	-3.78022
-0.390625 	-0.921875 	0.5 	-3.94905
-0.375 	-0.921875 	0.5 	-4.17047
-0.359375 	-0.921875 	0.5 	-4.35649
-0.34375 	-0.921875 	0.5 	-4.5273
-0.328125 	-0.921875 	0.5 	-4.6812
-0.3125 	-0.921875 	0.5 	-4.80392
-0.296875 	-0.921875 	0.5 	-4.97871
-0.28125 	-0.921875 	0.5 	-5.19933
-0.265625 	-0.921875 	0.5 	-5.44035
-0.25 	-0.921875 	0.5 	-5.69275
-0.234375 	-0.921875 	0.5 	-5.96058
-0.21875 	-0.921875 	0.5 	-6.18569
-0.203125 	-0.921875 	0.5 	-6.45829
-0.1875 	-0.921875 	0.5 	-6.76039
-0.171875 	-0.921875 	0.5 	-7.0561
-0.15625 	-0.921875 	0.5 	-7.35736
-0.140625 	-0.921875 	0.5 	-7.66232
-0.125 	-0.921875 	0.5 	-7.87793
-0.109375 	-0.921875 	0.5 	-8.15038
-0.09375 	-0.921875 	0.5 	-8.46003
-0.078125 	-0.921875 	0.5 	-8.75874
-0.0625 	-0.921875 	0.5 	-9.09622
-0.046875 	-0.921875 	0.5 	-9.44916
-0.03125 	-0.921875 	0.5 	-9.7979
-0.015625 	-0.921875 	0.5 	-10.1666
0 	-0.921875 	0.5 	-10.5303
0.015625 	-0.921875 	0.5 	-10.8101
0.03125 	-0.921875 	0.5 	-11.1115
0.046875 	-0.921875 	0.5 	-11.4688
0.0625 	-0.921875 	0.5 	-11.8492
0.078125 	-0.921875 	0.5 	-12.1547
0.09375 	-0.921875 	0.5 	-12.4406
0.109375 	-0.921875 	0.5 	-12.7459
0.125 	-0.921875 	0.5 	-13.0682
0.140625 	-0.921875 	0.5 	-13.3953
0.15625 	-0.921875 	0.5 	-13.8022
0.171875 	-0.921875 	0.5 	-14.0976
0.1875 	-0.921875 	0.5 	-14.3066
0.203125 	-0.921875 	0.5 	-14.5185
0.21875 	-0.921875 	0.5 	-14.9289
0.234375 	-0.921875 	0.5 	-15.2031
0.25 	-0.921875 	0.5 	-15.4473
0.265625 	-0.921875 	0.5 	-15.6686
0.28125 	-0.921875 	0.5 	-15.899
0.296875 	-0.921875 	0.5 	-16.1528
0.3125 	-0.921875 	0.5 	-16.4704
0.328125 	-0.921875 	0.5 	-16.6408
0.34375 	-0.921875 	0.5 	-16.7995
0.359375 	-0.921875 	0.5 	-16.9551
0.375 	-0.921875 	0.5 	-17.0794
0.390625 	-0.921875 	0.5 	-17.1787
0.40625 	-0.921875 	0.5 	-17.3498
0.421875 	-0.921875 	0.5 	-17.4364
0.4375 	-0.921875 	0.5 	-17.5999
0.453125 	-0.921875 	0.5 	-17.5411
0.46875 	-0.921875 	0.5 	-17.6592
0.484375 	-0.921875 	0.5 	-17.8199
0.5 	-0.921875 	0.5 	-17.883
0.515625 	-0.921875 	0.5 	-17.9106
0.53125 	-0.921875 	0.5 	-17.8393
0.546875 	-0.921875 	0.5 	-17.8848
0.5625 	-0.921875 	0.5 	-17.8855
0.578125 	-0.921875 	0.5 	-17.8186
0.59375 	-0.921875 	0.5 	-17.7752
0.609375 	-0.921875 	0.5 	-17.7034
0.625 	-0.921875 	0.5 	-17.6414
0.640625 	-0.921875 	0.5 	-17.6005
0.65625 	-0.921875 	0.5 	-17.5253
0.671875 	-0.921875 	0.5 	-17.4293
0.6875 	-0.921875 	0.5 	-17.3134
0.703125 	-0.921875 	0.5 	-17.1496
0.71875 	-0.921875 	0.5 	-17.0141
0.734375 	-0.921875 	0.5 	-16.878
0.75 	-0.921875 	0.5 	-16.7161
0.765625 	-0.921875 	0.5 	-16.5665
0.78125 	-0.921875 	0.5 	-16.4262
0.796875 	-0.921875 	0.5 	-16.2984
0.8125 	-0.921875 	0.5 	-16.0722
0.828125 	-0.921875 	0.5 	-15.8396
0.84375 	-0.921875 	0.5 	-15.6534
0.859375 	-0.921875 	0.5 	-15.5018
0.875 	-0.921875 	0.5 	-15.3788
0.890625 	-0.921875 	0.5 	-15.1077
0.90625 	-0.921875 	0.5 	-14.9509
0.921875 	-0.921875 	0.5 	-14.683
0.9375 	-0.921875 	0.5 	-14.4769
0.953125 	-0.921875 	0.5 	-14.2623
0.96875 	-0.921875 	0.5 	-14.0524
0.984375 	-0.921875 	0.5 	-13.877
1 	-0.921875 	0.5 	-13.6728
1.01562 	-0.921875 	0.5 	-13.4779
1.03125 	-0.921875 	0.5 	-13.2675
1.04688 	-0.921875 	0.5 	-13.0492
1.0625 	-0.921875 	0.5 	-12.8301
1.07812 	-0.921875 	0.5 	-12.6523
1.09375 	-0.921875 	0.5 	-12.4654
1.10938 	-0.921875 	0.5 	-12.2753
1.125 	-0.921875 	0.5 	-12.0944
1.14062 	-0.921875 	0.5 	-11.95
1.15625 	-0.921875 	0.5 	-11.7584
1.17188 	-0.921875 	0.5 	-11.5646
1.1875 	-0.921875 	0.5 	-11.3647
1.20312 	-0.921875 	0.5 	-11.2415
1.21875 	-0.921875 	0.5 	-11.1159
1.23438 	-0.921875 	0.5 	-10.9387
1.25 	-0.921875 	0.5 	-10.8345
1.26562 	-0.921875 	0.5 	-10.6737
1.28125 	-0.921875 	0.5 	-10.492
1.29688 	-0.921875 	0.5 	-10.3687
1.3125 	-0.921875 	0.5 	-10.2572
1.32812 	-0.921875 	0.5 	-10.1473
1.34375 	-0.921875 	0.5 	-10.0502
1.35938 	-0.921875 	0.5 	-9.944
1.375 	-0.921875 	0.5 	-9.81401
1.39062 	-0.921875 	0.5 	-9.70833
1.40625 	-0.921875 	0.5 	-9.60729
1.42188 	-0.921875 	0.5 	-9.55642
1.4375 	-0.921875 	0.5 	-9.49073
1.45312 	-0.921875 	0.5 	-9.42433
1.46875 	-0.921875 	0.5 	-9.35621
1.48438 	-0.921875 	0.5 	-9.29198
-0.5 	-0.90625 	0.5 	-2.92658
-0.484375 	-0.90625 	0.5 	-3.00027
-0.46875 	-0.90625 	0.5 	-3.08706
-0.453125 	-0.90625 	0.5 	-3.18962
-0.4375 	-0.90625 	0.5 	-3.30988
-0.421875 	-0.90625 	0.5 	-3.43787
-0.40625 	-0.90625 	0.5 	-3.57034
-0.390625 	-0.90625 	0.5 	-3.73705
-0.375 	-0.90625 	0.5 	-3.90205
-0.359375 	-0.90625 	0.5 	-4.09062
-0.34375 	-0.90625 	0.5 	-4.27332
-0.328125 	-0.90625 	0.5 	-4.42409
-0.3125 	-0.90625 	0.5 	-4.61771
-0.296875 	-0.90625 	0.5 	-4.79678
-0.28125 	-0.90625 	0.5 	-5.00352
-0.265625 	-0.90625 	0.5 	-5.27781
-0.25 	-0.90625 	0.5 	-5.5072
-0.234375 	-0.90625 	0.5 	-5.78979
-0.21875 	-0.90625 	0.5 	-6.0852
-0.203125 	-0.90625 	0.5 	-6.3483
-0.1875 	-0.90625 	0.5 	-6.64355
-0.171875 	-0.90625 	0.5 	-6.94108
-0.15625 	-0.90625 	0.5 	-7.23861
-0.140625 	-0.90625 	0.5 	-7.53919
-0.125 	-0.90625 	0.5 	-7.81617
-0.109375 	-0.90625 	0.5 	-8.09136
-0.09375 	-0.90625 	0.5 	-8.36655
-0.078125 	-0.90625 	0.5 	-8.71966
-0.0625 	-0.90625 	0.5 	-9.0921
-0.046875 	-0.90625 	0.5 	-9.4093
-0.03125 	-0.90625 	0.5 	-9.77157
-0.015625 	-0.90625 	0.5 	-10.2219
0 	-0.90625 	0.5 	-10.5424
0.015625 	-0.90625 	0.5 	-10.8807
0.03125 	-0.90625 	0.5 	-11.1646
0.046875 	-0.90625 	0.5 	-11.5205
0.0625 	-0.90625 	0.5 	-11.9261
0.078125 	-0.90625 	0.5 	-12.2631
0.09375 	-0.90625 	0.5 	-12.554
0.109375 	-0.90625 	0.5 	-12.968
0.125 	-0.90625 	0.5 	-13.3164
0.140625 	-0.90625 	0.5 	-13.6193
0.15625 	-0.90625 	0.5 	-13.9901
0.171875 	-0.90625 	0.5 	-14.2988
0.1875 	-0.90625 	0.5 	-14.5758
0.203125 	-0.90625 	0.5 	-14.9287
0.21875 	-0.90625 	0.5 	-15.1556
0.234375 	-0.90625 	0.5 	-15.5421
0.25 	-0.90625 	0.5 	-15.7207
0.265625 	-0.90625 	0.5 	-15.9491
0.28125 	-0.90625 	0.5 	-16.1158
0.296875 	-0.90625 	0.5 	-16.417
0.3125 	-0.90625 	0.5 	-16.7382
0.328125 	-0.90625 	0.5 	-16.908
0.34375 	-0.90625 	0.5 	-17.0677
0.359375 	-0.90625 	0.5 	-17.2422
0.375 	-0.90625 	0.5 	-17.3407
0.390625 	-0.90625 	0.5 	-17.4789
0.40625 	-0.90625 	0.5 	-17.6214
0.421875 	-0.90625 	0.5 	-17.7548
0.4375 	-0.90625 	0.5 	-17.8886
0.453125 	-0.90625 	0.5 	-17.9857
0.46875 	-0.90625 	0.5 	-18.1252
0.484375 	-0.90625 	0.5 	-18.1696
0.5 	-0.90625 	0.5 	-18.175
0.515625 	-0.90625 	0.5 	-18.1792
0.53125 	-0.90625 	0.5 	-18.1904
0.546875 	-0.90625 	0.5 	-18.1929
0.5625 	-0.90625 	0.5 	-18.1925
0.578125 	-0.90625 	0.5 	-18.1534
0.59375 	-0.90625 	0.5 	-18.0808
0.609375 	-0.90625 	0.5 	-18.0948
0.625 	-0.90625 	0.5 	-17.9754
0.640625 	-0.90625 	0.5 	-17.876
0.65625 	-0.90625 	0.5 	-17.7591
0.671875 	-0.90625 	0.5 	-17.6263
0.6875 	-0.90625 	0.5 	-17.6337
0.703125 	-0.90625 	0.5 	-17.5314
0.71875 	-0.90625 	0.5 	-17.3007
0.734375 	-0.90625 	0.5 	-17.0997
0.75 	-0.90625 	0.5 	-16.9292
0.765625 	-0.90625 	0.5 	-16.7922
0.78125 	-0.90625 	0.5 	-16.6085
0.796875 	-0.90625 	0.5 	-16.4429
0.8125 	-0.90625 	0.5 	-16.2715
0.828125 	-0.90625 	0.5 	-16.0501
0.84375 	-0.90625 	0.5 	-15.8168
0.859375 	-0.90625 	0.5 	-15.5998
0.875 	-0.90625 	0.5 	-15.4053
0.890625 	-0.90625 	0.5 	-15.2225
0.90625 	-0.90625 	0.5 	-15.0264
0.921875 	-0.90625 	0.5 	-14.7973
0.9375 	-0.90625 	0.5 	-14.5505
0.953125 	-0.90625 	0.5 	-14.3364
0.96875 	-0.90625 	0.5 	-14.1413
0.984375 	-0.90625 	0.5 	-13.9799
1 	-0.90625 	0.5 	-13.7168
1.01562 	-0.90625 	0.5 	-13.5127
1.03125 	-0.90625 	0.5 	-13.2913
1.04688 	-0.90625 	0.5 	-13.0382
1.0625 	-0.90625 	0.5 	-12.8462
1.07812 	-0.90625 	0.5 	-12.6567
1.09375 	-0.90625 	0.5 	-12.474
1.10938 	-0.90625 	0.5 	-12.2677
1.125 	-0.90625 	0.5 	-12.0791
1.14062 	-0.90625 	0.5 	-11.8874
1.15625 	-0.90625 	0.5 	-11.7172
1.17188 	-0.90625 	0.5 	-11.5145
1.1875 	-0.90625 	0.5 	-11.3219
1.20312 	-0.90625 	0.5 	-11.1311
1.21875 	-0.90625 	0.5 	-10.9944
1.23438 	-0.90625 	0.5 	-10.8668
1.25 	-0.90625 	0.5 	-10.7279
1.26562 	-0.90625 	0.5 	-10.5819
1.28125 	-0.90625 	0.5 	-10.3902
1.29688 	-0.90625 	0.5 	-10.2903
1.3125 	-0.90625 	0.5 	-10.2046
1.32812 	-0.90625 	0.5 	-10.0938
1.34375 	-0.90625 	0.5 	-9.96355
1.35938 	-0.90625 	0.5 	-9.83393
1.375 	-0.90625 	0.5 	-9.6947
1.39062 	-0.90625 	0.5 	-9.61574
1.40625 	-0.90625 	0.5 	-9.45703
1.42188 	-0.90625 	0.5 	-9.43689
1.4375 	-0.90625 	0.5 	-9.38653
1.45312 	-0.90625 	0.5 	-9.32784
1.46875 	-0.90625 	0.5 	-9.25527
1.48438 	-0.90625 	0.5 	-9.20202
-0.5 	-0.890625 	0.5 	-2.67967
-0.484375 	-0.890625 	0.5 	-2.76161
-0.46875 	-0.890625 	0.5 	-2.879
-0.453125 	-0.890625 	0.5 	-2.93934
-0.4375 	-0.890625 	0.5 	-3.07482
-0.421875 	-0.890625 	0.5 	-3.21239
-0.40625 	-0.890625 	0.5 	-3.32146
-0.390625 	-0.890625 	0.5 	-3.47665
-0.375 	-0.890625 	0.5 	-3.67254
-0.359375 	-0.890625 	0.5 	-3.84456
-0.34375 	-0.890625 	0.5 	-4.04293
-0.328125 	-0.890625 	0.5 	-4.19881
-0.3125 	-0.890625 	0.5 	-4.38849
-0.296875 	-0.890625 	0.5 	-4.59197
-0.28125 	-0.890625 	0.5 	-4.79891
-0.265625 	-0.890625 	0.5 	-5.0722
-0.25 	-0.890625 	0.5 	-5.32166
-0.234375 	-0.890625 	0.5 	-5.60362
-0.21875 	-0.890625 	0.5 	-5.89716
-0.203125 	-0.890625 	0.5 	-6.19902
-0.1875 	-0.890625 	0.5 	-6.44211
-0.171875 	-0.890625 	0.5 	-6.68451
-0.15625 	-0.890625 	0.5 	-7.03627
-0.140625 	-0.890625 	0.5 	-7.4315
-0.125 	-0.890625 	0.5 	-7.76045
-0.109375 	-0.890625 	0.5 	-8.07823
-0.09375 	-0.890625 	0.5 	-8.35018