-0.5 	-1 	0.5 	39.6743 	0.00699403 	-1.38051e-22
-0.484375 	-1 	0.5 	39.6749 	0.0027026 	-9.00196e-22
-0.46875 	-1 	0.5 	39.6756 	-0.00161862 	-1.68182e-22
-0.453125 	-1 	0.5 	39.6767 	-0.00662314 	-1.20423e-21
-0.4375 	-1 	0.5 	39.6772 	-0.0117942 	-4.9036e-23
-0.421875 	-1 	0.5 	39.6791 	-0.017901 	1.52144e-21
-0.40625 	-1 	0.5 	39.6797 	-0.0218063 	2.13954e-21
-0.390625 	-1 	0.5 	39.6807 	-0.02628 	2.42592e-21
-0.375 	-1 	0.5 	39.6824 	-0.0308552 	3.37781e-21
-0.359375 	-1 	0.5 	39.6843 	-0.0364083 	1.46655e-20
-0.34375 	-1 	0.5 	39.6854 	-0.0398018 	2.47471e-21
-0.328125 	-1 	0.5 	39.6879 	-0.0439424 	-1.23324e-20
-0.3125 	-1 	0.5 	39.6899 	-0.0487047 	-1.06775e-21
-0.296875 	-1 	0.5 	39.693 	-0.0534536 	-9.62113e-22
-0.28125 	-1 	0.5 	39.6953 	-0.0572393 	-3.60492e-22
-0.265625 	-1 	0.5 	39.6979 	-0.0609476 	8.6793e-22
-0.25 	-1 	0.5 	39.7012 	-0.0651467 	4.1783e-22
-0.234375 	-1 	0.5 	39.7045 	-0.0693198 	-1.19393e-21
-0.21875 	-1 	0.5 	39.7075 	-0.073056 	1.27141e-20
-0.203125 	-1 	0.5 	39.7109 	-0.0759984 	-1.27844e-20
-0.1875 	-1 	0.5 	39.7146 	-0.0791366 	-2.54812e-20
-0.171875 	-1 	0.5 	39.7184 	-0.0831689 	-4.00277e-21
-0.15625 	-1 	0.5 	39.7223 	-0.0866859 	-2.5622e-21
-0.140625 	-1 	0.5 	39.7262 	-0.0898843 	1.74175e-21
-0.125 	-1 	0.5 	39.7302 	-0.0919198 	5.15988e-21
-0.109375 	-1 	0.5 	39.7341 	-0.0944097 	2.4848e-20
-0.09375 	-1 	0.5 	39.7383 	-0.0968938 	3.91808e-20
-0.078125 	-1 	0.5 	39.7433 	-0.0990849 	9.67055e-21
-0.0625 	-1 	0.5 	39.7476 	-0.100778 	4.95402e-21
-0.046875 	-1 	0.5 	39.752 	-0.102435 	-6.12477e-21
-0.03125 	-1 	0.5 	39.7566 	-0.104286 	-2.38839e-20
-0.015625 	-1 	0.5 	39.7613 	-0.105515 	-1.09673e-20
0 	-1 	0.5 	39.7657 	-0.106571 	1.37746e-20
0.015625 	-1 	0.5 	39.771 	-0.108938 	-6.47757e-21
0.03125 	-1 	0.5 	39.7762 	-0.109174 	2.21306e-20
0.046875 	-1 	0.5 	39.7806 	-0.10968 	1.13739e-19
0.0625 	-1 	0.5 	39.7853 	-0.108824 	2.15467e-20
0.078125 	-1 	0.5 	39.7899 	-0.108958 	8.39199e-21
0.09375 	-1 	0.5 	39.7935 	-0.10822 	4.73162e-20
0.109375 	-1 	0.5 	39.798 	-0.108345 	4.45934e-22
0.125 	-1 	0.5 	39.8026 	-0.107158 	-4.99978e-20
0.140625 	-1 	0.5 	39.8071 	-0.106244 	-1.80286e-21
0.15625 	-1 	0.5 	39.8111 	-0.104829 	-8.17984e-22
0.171875 	-1 	0.5 	39.8154 	-0.103637 	-3.30286e-21
0.1875 	-1 	0.5 	39.8193 	-0.102532 	-3.70487e-21
0.203125 	-1 	0.5 	39.8229 	-0.100734 	-1.51537e-20
0.21875 	-1 	0.5 	39.8267 	-0.0987853 	-2.25365e-20
0.234375 	-1 	0.5 	39.8306 	-0.096911 	1.55689e-20
0.25 	-1 	0.5 	39.8336 	-0.0943974 	8.29788e-20
0.265625 	-1 	0.5 	39.8368 	-0.0922237 	1.85605e-20
0.28125 	-1 	0.5 	39.8401 	-0.0897155 	6.8166e-21
0.296875 	-1 	0.5 	39.8427 	-0.0870848 	3.78651e-21
0.3125 	-1 	0.5 	39.8452 	-0.0844966 	3.80531e-21
0.328125 	-1 	0.5 	39.8476 	-0.0818774 	7.02503e-21
0.34375 	-1 	0.5 	39.8497 	-0.0790837 	5.46751e-21
0.359375 	-1 	0.5 	39.8516 	-0.0766595 	6.8188e-21
0.375 	-1 	0.5 	39.8536 	-0.0741197 	1.14103e-20
0.390625 	-1 	0.5 	39.8559 	-0.0707141 	2.68861e-21
0.40625 	-1 	0.5 	39.8573 	-0.0674002 	9.95571e-21
0.421875 	-1 	0.5 	39.8577 	-0.0640482 	1.76343e-20
0.4375 	-1 	0.5 	39.8583 	-0.0604232 	-5.54857e-21
0.453125 	-1 	0.5 	39.8594 	-0.0572619 	1.94732e-20
0.46875 	-1 	0.5 	39.8606 	-0.0542415 	2.17874e-20
0.484375 	-1 	0.5 	39.8609 	-0.0519461 	-4.76343e-20
0.5 	-1 	0.5 	39.8608 	-0.0483658 	2.26777e-21
0.515625 	-1 	0.5 	39.8607 	-0.0453307 	3.65785e-21
0.53125 	-1 	0.5 	39.8605 	-0.0425205 	3.98691e-21
0.546875 	-1 	0.5 	39.8598 	-0.0398533 	-4.95336e-21
0.5625 	-1 	0.5 	39.8592 	-0.0371455 	-2.04409e-20
0.578125 	-1 	0.5 	39.8584 	-0.0341507 	-6.47112e-21
0.59375 	-1 	0.5 	39.8575 	-0.0316097 	1.05181e-20
0.609375 	-1 	0.5 	39.8565 	-0.0291047 	-1.9721e-20
0.625 	-1 	0.5 	39.8553 	-0.0263495 	-2.01212e-20
0.640625 	-1 	0.5 	39.8537 	-0.0240185 	-2.17295e-20
0.65625 	-1 	0.5 	39.8521 	-0.0215796 	-2.13265e-20
0.671875 	-1 	0.5 	39.8507 	-0.0201349 	-4.05207e-20
0.6875 	-1 	0.5 	39.8487 	-0.0187553 	-1.0192e-20
0.703125 	-1 	0.5 	39.8469 	-0.0171765 	4.04992e-20
0.71875 	-1 	0.5 	39.8449 	-0.0156458 	5.06676e-21
0.734375 	-1 	0.5 	39.8428 	-0.0143594 	-4.6108e-21
0.75 	-1 	0.5 	39.8411 	-0.0130143 	-3.28277e-20
0.765625 	-1 	0.5 	39.8387 	-0.0116409 	-1.36529e-20
0.78125 	-1 	0.5 	39.8359 	-0.0106318 	-1.05923e-20
0.796875 	-1 	0.5 	39.8335 	-0.00990821 	-4.15642e-21
0.8125 	-1 	0.5 	39.8315 	-0.00964765 	-1.83693e-20
0.828125 	-1 	0.5 	39.829 	-0.00937248 	-1.30486e-21
0.84375 	-1 	0.5 	39.8265 	-0.00964006 	2.17509e-21
0.859375 	-1 	0.5 	39.8239 	-0.00918344 	1.05463e-20
0.875 	-1 	0.5 	39.8216 	-0.00911019 	5.19866e-20
0.890625 	-1 	0.5 	39.8191 	-0.00927242 	1.16909e-21
0.90625 	-1 	0.5 	39.8169 	-0.00985727 	2.33743e-21
0.921875 	-1 	0.5 	39.8149 	-0.0105249 	-1.61886e-21
0.9375 	-1 	0.5 	39.8124 	-0.0113223 	2.83109e-21
0.953125 	-1 	0.5 	39.81 	-0.0122618 	6.23941e-21
0.96875 	-1 	0.5 	39.8076 	-0.0132098 	2.10686e-20
0.984375 	-1 	0.5 	39.8054 	-0.0142875 	2.99936e-20
1 	-1 	0.5 	39.8034 	-0.0159826 	-1.89313e-20
1.01562 	-1 	0.5 	39.8011 	-0.0174467 	-2.69088e-20
1.03125 	-1 	0.5 	39.7992 	-0.0190077 	-7.69915e-21
1.04688 	-1 	0.5 	39.7973 	-0.0206166 	4.13315e-21
1.0625 	-1 	0.5 	39.7956 	-0.0227103 	2.86487e-20
1.07812 	-1 	0.5 	39.7938 	-0.0242898 	3.17043e-20
1.09375 	-1 	0.5 	39.792 	-0.0256107 	-1.64048e-20
1.10938 	-1 	0.5 	39.79 	-0.0282833 	1.21543e-21
1.125 	-1 	0.5 	39.7891 	-0.0297702 	1.00534e-21
1.14062 	-1 	0.5 	39.7879 	-0.0322623 	-4.15499e-21
1.15625 	-1 	0.5 	39.7867 	-0.0351968 	-4.27967e-21
1.17188 	-1 	0.5 	39.7852 	-0.037598 	-2.18015e-21
1.1875 	-1 	0.5 	39.7841 	-0.0392941 	2.0643e-21
1.20312 	-1 	0.5 	39.783 	-0.0425219 	1.51065e-21
1.21875 	-1 	0.5 	39.7822 	-0.0446039 	-7.03969e-22
1.23438 	-1 	0.5 	39.7814 	-0.0468434 	-3.49206e-21
1.25 	-1 	0.5 	39.781 	-0.0499611 	7.81287e-22
1.26562 	-1 	0.5 	39.7812 	-0.0531848 	-8.49577e-20
1.28125 	-1 	0.5 	39.7809 	-0.0558122 	2.4964e-20
1.29688 	-1 	0.5 	39.7803 	-0.0586001 	3.85747e-21
1.3125 	-1 	0.5 	39.7807 	-0.0613497 	-4.89529e-20
1.32812 	-1 	0.5 	39.7807 	-0.064573 	1.53263e-20
1.34375 	-1 	0.5 	39.7807 	-0.0670898 	2.99686e-20
1.35938 	-1 	0.5 	39.7814 	-0.0698112 	5.04773e-20
1.375 	-1 	0.5 	39.782 	-0.0726695 	7.43662e-20
1.39062 	-1 	0.5 	39.7814 	-0.0756026 	-5.96491e-21
1.40625 	-1 	0.5 	39.7823 	-0.0775966 	-7.99304e-20
1.42188 	-1 	0.5 	39.7829 	-0.0806707 	3.44269e-21
1.4375 	-1 	0.5 	39.7835 	-0.0832457 	1.77267e-21
1.45312 	-1 	0.5 	39.7845 	-0.0860055 	-1.69603e-21
1.46875 	-1 	0.5 	39.7853 	-0.0887748 	-4.49287e-21
1.48438 	-1 	0.5 	39.7862 	-0.0910389 	-1.24669e-20
-0.5 	-0.984375 	0.5 	39.6691 	0.0072877 	-1.59169e-22
-0.484375 	-0.984375 	0.5 	39.6696 	0.0027488 	-9.41416e-23
-0.46875 	-0.984375 	0.5 	39.6703 	-0.00247654 	-2.09325e-22
-0.453125 	-0.984375 	0.5 	39.6713 	-0.00772754 	-5.22133e-22
-0.4375 	-0.984375 	0.5 	39.672 	-0.0129447 	2.39449e-23
-0.421875 	-0.984375 	0.5 	39.6733 	-0.0182216 	1.21613e-21
-0.40625 	-0.984375 	0.5 	39.6743 	-0.0228025 	2.11697e-21
-0.390625 	-0.984375 	0.5 	39.6754 	-0.027853 	2.80152e-21
-0.375 	-0.984375 	0.5 	39.6769 	-0.0324379 	2.25413e-21
-0.359375 	-0.984375 	0.5 	39.6785 	-0.036865 	3.21645e-21
-0.34375 	-0.984375 	0.5 	39.6801 	-0.0416739 	6.4141e-21
-0.328125 	-0.984375 	0.5 	39.6818 	-0.0455918 	-2.92803e-21
-0.3125 	-0.984375 	0.5 	39.6847 	-0.050495 	3.2038e-22
-0.296875 	-0.984375 	0.5 	39.6876 	-0.0551396 	3.11087e-22
-0.28125 	-0.984375 	0.5 	39.6905 	-0.0597619 	2.77198e-22
-0.265625 	-0.984375 	0.5 	39.6931 	-0.0636799 	4.70323e-22
-0.25 	-0.984375 	0.5 	39.6966 	-0.0679062 	-8.34066e-22
-0.234375 	-0.984375 	0.5 	39.7 	-0.0721081 	-2.27977e-21
-0.21875 	-0.984375 	0.5 	39.7034 	-0.07631 	-3.72548e-21
-0.203125 	-0.984375 	0.5 	39.7068 	-0.0798978 	-7.96682e-21
-0.1875 	-0.984375 	0.5 	39.7103 	-0.0833877 	-1.47817e-20
-0.171875 	-0.984375 	0.5 	39.7143 	-0.0870449 	-6.09513e-21
-0.15625 	-0.984375 	0.5 	39.7176 	-0.0898358 	7.97948e-22
-0.140625 	-0.984375 	0.5 	39.722 	-0.0927574 	4.32403e-21
-0.125 	-0.984375 	0.5 	39.7266 	-0.0957213 	7.64781e-21
-0.109375 	-0.984375 	0.5 	39.7311 	-0.098252 	4.99545e-21
-0.09375 	-0.984375 	0.5 	39.7356 	-0.100686 	2.13283e-21
-0.078125 	-0.984375 	0.5 	39.7402 	-0.103333 	3.49821e-21
-0.0625 	-0.984375 	0.5 	39.7453 	-0.1059 	1.41453e-20
-0.046875 	-0.984375 	0.5 	39.7501 	-0.108036 	-4.38329e-20
-0.03125 	-0.984375 	0.5 	39.7546 	-0.109492 	-2.43245e-20
-0.015625 	-0.984375 	0.5 	39.7593 	-0.110333 	-4.76148e-20
0 	-0.984375 	0.5 	39.7645 	-0.111504 	-5.27025e-21
0.015625 	-0.984375 	0.5 	39.7693 	-0.113191 	-3.50607e-20
0.03125 	-0.984375 	0.5 	39.7744 	-0.113958 	-6.47855e-20
0.046875 	-0.984375 	0.5 	39.7797 	-0.113539 	5.06641e-20
0.0625 	-0.984375 	0.5 	39.7842 	-0.113205 	1.24564e-20
0.078125 	-0.984375 	0.5 	39.7887 	-0.113414 	-2.86593e-21
0.09375 	-0.984375 	0.5 	39.7936 	-0.113385 	-1.13043e-20
0.109375 	-0.984375 	0.5 	39.7983 	-0.112552 	-2.92784e-20
0.125 	-0.984375 	0.5 	39.8029 	-0.111427 	-5.00644e-20
0.140625 	-0.984375 	0.5 	39.8076 	-0.110632 	-8.2745e-21
0.15625 	-0.984375 	0.5 	39.8117 	-0.109243 	-7.69695e-21
0.171875 	-0.984375 	0.5 	39.816 	-0.107884 	3.43744e-22
0.1875 	-0.984375 	0.5 	39.8204 	-0.106556 	-4.10359e-21
0.203125 	-0.984375 	0.5 	39.8242 	-0.104314 	-3.51438e-20
0.21875 	-0.984375 	0.5 	39.8281 	-0.102272 	-7.79125e-21
0.234375 	-0.984375 	0.5 	39.8321 	-0.100235 	1.84094e-20
0.25 	-0.984375 	0.5 	39.8357 	-0.0975445 	3.69298e-20
0.265625 	-0.984375 	0.5 	39.8391 	-0.0949974 	3.81849e-20
0.28125 	-0.984375 	0.5 	39.8422 	-0.0927766 	-3.14645e-23
0.296875 	-0.984375 	0.5 	39.845 	-0.0897855 	1.06695e-20
0.3125 	-0.984375 	0.5 	39.8475 	-0.0871595 	1.10613e-20
0.328125 	-0.984375 	0.5 	39.8499 	-0.084116 	3.8624e-22
0.34375 	-0.984375 	0.5 	39.8527 	-0.0811616 	-2.39149e-21
0.359375 	-0.984375 	0.5 	39.8546 	-0.0786952 	-1.1354e-21
0.375 	-0.984375 	0.5 	39.8566 	-0.0751552 	2.31834e-21
0.390625 	-0.984375 	0.5 	39.8586 	-0.0718396 	7.00087e-21
0.40625 	-0.984375 	0.5 	39.8599 	-0.0685914 	1.97505e-20
0.421875 	-0.984375 	0.5 	39.8605 	-0.064343 	-1.09927e-20
0.4375 	-0.984375 	0.5 	39.861 	-0.0608232 	-1.20503e-20
0.453125 	-0.984375 	0.5 	39.8619 	-0.0570944 	-4.22185e-21
0.46875 	-0.984375 	0.5 	39.8628 	-0.0545579 	2.15563e-20
0.484375 	-0.984375 	0.5 	39.8633 	-0.0517843 	-1.37366e-20
0.5 	-0.984375 	0.5 	39.863 	-0.0484054 	-5.54661e-22
0.515625 	-0.984375 	0.5 	39.8628 	-0.0452458 	3.91121e-21
0.53125 	-0.984375 	0.5 	39.8627 	-0.0421538 	7.18104e-21
0.546875 	-0.984375 	0.5 	39.8621 	-0.0389844 	-5.29842e-20
0.5625 	-0.984375 	0.5 	39.8615 	-0.0361077 	-4.78974e-20
0.578125 	-0.984375 	0.5 	39.8611 	-0.0334329 	-1.65479e-21
0.59375 	-0.984375 	0.5 	39.8596 	-0.0304979 	1.16542e-20
0.609375 	-0.984375 	0.5 	39.8583 	-0.0277 	2.90601e-21
0.625 	-0.984375 	0.5 	39.8572 	-0.0249629 	-9.16577e-21
0.640625 	-0.984375 	0.5 	39.8557 	-0.0225032 	-2.44917e-20
0.65625 	-0.984375 	0.5 	39.8538 	-0.0206105 	-6.41706e-21
0.671875 	-0.984375 	0.5 	39.8518 	-0.0182339 	-2.70333e-20
0.6875 	-0.984375 	0.5 	39.8499 	-0.0167707 	-1.51052e-20
0.703125 	-0.984375 	0.5 	39.8481 	-0.0151325 	3.26261e-20
0.71875 	-0.984375 	0.5 	39.8461 	-0.0136464 	-1.76936e-20
0.734375 	-0.984375 	0.5 	39.8441 	-0.0122287 	-2.40851e-20
0.75 	-0.984375 	0.5 	39.8418 	-0.0108519 	-3.07547e-20
0.765625 	-0.984375 	0.5 	39.8392 	-0.00979258 	-4.3632e-20
0.78125 	-0.984375 	0.5 	39.8364 	-0.00893702 	-4.55661e-20
0.796875 	-0.984375 	0.5 	39.8337 	-0.00795462 	-2.95852e-20
0.8125 	-0.984375 	0.5 	39.831 	-0.00715099 	9.65565e-21
0.828125 	-0.984375 	0.5 	39.8284 	-0.0071316 	1.58498e-20
0.84375 	-0.984375 	0.5 	39.8258 	-0.0071122 	2.20439e-20
0.859375 	-0.984375 	0.5 	39.8234 	-0.00703934 	3.26342e-20
0.875 	-0.984375 	0.5 	39.8211 	-0.00686637 	5.29852e-20
0.890625 	-0.984375 	0.5 	39.8187 	-0.00701959 	1.0197e-20
0.90625 	-0.984375 	0.5 	39.8164 	-0.00767307 	9.1055e-21
0.921875 	-0.984375 	0.5 	39.814 	-0.00832894 	7.61591e-21
0.9375 	-0.984375 	0.5 	39.811 	-0.0089982 	1.61734e-20
0.953125 	-0.984375 	0.5 	39.8084 	-0.00983912 	4.46399e-21
0.96875 	-0.984375 	0.5 	39.806 	-0.0111582 	-9.53465e-21
0.984375 	-0.984375 	0.5 	39.8037 	-0.0123113 	7.88199e-21
1 	-0.984375 	0.5 	39.8015 	-0.0138466 	-2.69929e-20
1.01562 	-0.984375 	0.5 	39.7995 	-0.0153549 	-8.8901e-21
1.03125 	-0.984375 	0.5 	39.797 	-0.0163965 	-1.56997e-20
1.04688 	-0.984375 	0.5 	39.7947 	-0.0183704 	-1.73282e-20
1.0625 	-0.984375 	0.5 	39.7929 	-0.0199968 	-3.22828e-21
1.07812 	-0.984375 	0.5 	39.7911 	-0.0216314 	1.27948e-20
1.09375 	-0.984375 	0.5 	39.7897 	-0.0239311 	-1.90595e-20
1.10938 	-0.984375 	0.5 	39.7883 	-0.0266497 	-4.48724e-20
1.125 	-0.984375 	0.5 	39.7863 	-0.0288672 	8.10121e-22
1.14062 	-0.984375 	0.5 	39.7851 	-0.031449 	-2.14364e-21
1.15625 	-0.984375 	0.5 	39.7839 	-0.0345085 	1.30938e-22
1.17188 	-0.984375 	0.5 	39.7825 	-0.0369995 	2.25435e-21
1.1875 	-0.984375 	0.5 	39.7811 	-0.0392019 	4.54216e-21
1.20312 	-0.984375 	0.5 	39.78 	-0.0416205 	5.72721e-21
1.21875 	-0.984375 	0.5 	39.7792 	-0.0438599 	2.95504e-21
1.23438 	-0.984375 	0.5 	39.7786 	-0.0465653 	4.61369e-21
1.25 	-0.984375 	0.5 	39.7782 	-0.0496749 	8.83597e-21
1.26562 	-0.984375 	0.5 	39.778 	-0.0526735 	2.43235e-20
1.28125 	-0.984375 	0.5 	39.7774 	-0.0556574 	9.02608e-20
1.29688 	-0.984375 	0.5 	39.7769 	-0.0583146 	1.10636e-20
1.3125 	-0.984375 	0.5 	39.7773 	-0.0609486 	-6.84544e-20
1.32812 	-0.984375 	0.5 	39.7774 	-0.0641875 	-1.01539e-20
1.34375 	-0.984375 	0.5 	39.7775 	-0.067512 	2.25983e-20
1.35938 	-0.984375 	0.5 	39.778 	-0.0704512 	2.33633e-20
1.375 	-0.984375 	0.5 	39.7785 	-0.0733287 	3.68793e-20
1.39062 	-0.984375 	0.5 	39.7787 	-0.0762567 	2.32163e-20
1.40625 	-0.984375 	0.5 	39.779 	-0.0786732 	-3.3478e-20
1.42188 	-0.984375 	0.5 	39.7796 	-0.0814518 	2.37363e-22
1.4375 	-0.984375 	0.5 	39.7804 	-0.0841089 	-2.23192e-21
1.45312 	-0.984375 	0.5 	39.7813 	-0.0868258 	-5.28332e-21
1.46875 	-0.984375 	0.5 	39.7822 	-0.0895427 	-8.33472e-21
1.48438 	-0.984375 	0.5 	39.7833 	-0.0921953 	-5.39613e-21
-0.5 	-0.96875 	0.5 	39.6639 	0.00683227 	6.22972e-22
-0.484375 	-0.96875 	0.5 	39.664 	0.0018405 	-7.60721e-23
-0.46875 	-0.96875 	0.5 	39.6648 	-0.00285962 	-1.98696e-23
-0.453125 	-0.96875 	0.5 	39.6657 	-0.00829922 	1.57909e-23
-0.4375 	-0.96875 	0.5 	39.6664 	-0.0140425 	-4.6903e-24
-0.421875 	-0.96875 	0.5 	39.6672 	-0.0196142 	-1.43019e-24
-0.40625 	-0.96875 	0.5 	39.6683 	-0.0240772 	1.42406e-21
-0.390625 	-0.96875 	0.5 	39.6698 	-0.0293315 	1.49077e-21
-0.375 	-0.96875 	0.5 	39.6713 	-0.0349005 	7.83852e-22
-0.359375 	-0.96875 	0.5 	39.6729 	-0.039431 	9.38324e-23
-0.34375 	-0.96875 	0.5 	39.6743 	-0.0432024 	3.10898e-22
-0.328125 	-0.96875 	0.5 	39.6764 	-0.0475377 	-8.91531e-22
-0.3125 	-0.96875 	0.5 	39.6794 	-0.0528459 	4.24123e-21
-0.296875 	-0.96875 	0.5 	39.6825 	-0.0575977 	7.66963e-21
-0.28125 	-0.96875 	0.5 	39.685 	-0.0620968 	1.01126e-21
-0.265625 	-0.96875 	0.5 	39.6885 	-0.0665379 	2.26429e-22
-0.25 	-0.96875 	0.5 	39.6916 	-0.0707941 	-8.0421e-22
-0.234375 	-0.96875 	0.5 	39.6951 	-0.0749487 	-1.73134e-21
-0.21875 	-0.96875 	0.5 	39.6987 	-0.079426 	-7.12724e-21
-0.203125 	-0.96875 	0.5 	39.7025 	-0.0833565 	5.35373e-21
-0.1875 	-0.96875 	0.5 	39.7066 	-0.0874002 	8.23152e-24
-0.171875 	-0.96875 	0.5 	39.7102 	-0.0909535 	-4.28138e-21
-0.15625 	-0.96875 	0.5 	39.7141 	-0.0939545 	3.32481e-21
-0.140625 	-0.96875 	0.5 	39.7183 	-0.0971144 	3.03328e-21
-0.125 	-0.96875 	0.5 	39.723 	-0.100629 	3.65381e-21
-0.109375 	-0.96875 	0.5 	39.728 	-0.102793 	3.39522e-21
-0.09375 	-0.96875 	0.5 	39.7328 	-0.105647 	1.05342e-20
-0.078125 	-0.96875 	0.5 	39.7374 	-0.108216 	1.17877e-20
-0.0625 	-0.96875 	0.5 	39.7424 	-0.111002 	5.33072e-20
-0.046875 	-0.96875 	0.5 	39.7479 	-0.112772 	1.26576e-20
-0.03125 	-0.96875 	0.5 	39.7527 	-0.114465 	-3.72101e-21
-0.015625 	-0.96875 	0.5 	39.7576 	-0.115426 	-1.57159e-20
0 	-0.96875 	0.5 	39.7627 	-0.116712 	2.15556e-20
0.015625 	-0.96875 	0.5 	39.7678 	-0.117208 	-3.50099e-21
0.03125 	-0.96875 	0.5 	39.7732 	-0.117101 	8.21523e-22
0.046875 	-0.96875 	0.5 	39.7784 	-0.117641 	-1.55303e-20
0.0625 	-0.96875 	0.5 	39.7833 	-0.117519 	5.31521e-21
0.078125 	-0.96875 	0.5 	39.7883 	-0.118346 	-2.16446e-20
0.09375 	-0.96875 	0.5 	39.7934 	-0.118913 	-3.67403e-20
0.109375 	-0.96875 	0.5 	39.7986 	-0.11796 	-1.77571e-20
0.125 	-0.96875 	0.5 	39.8035 	-0.116728 	-1.8712e-20
0.140625 	-0.96875 	0.5 	39.8082 	-0.115094 	-1.58768e-20
0.15625 	-0.96875 	0.5 	39.8129 	-0.113474 	1.50395e-20
0.171875 	-0.96875 	0.5 	39.8174 	-0.112104 	3.10393e-20
0.1875 	-0.96875 	0.5 	39.8217 	-0.110916 	-2.12018e-21
0.203125 	-0.96875 	0.5 	39.8256 	-0.108336 	-1.20706e-21
0.21875 	-0.96875 	0.5 	39.8294 	-0.106263 	-8.36673e-21
0.234375 	-0.96875 	0.5 	39.8337 	-0.104032 	3.97407e-20
0.25 	-0.96875 	0.5 	39.8375 	-0.101343 	-3.32275e-20
0.265625 	-0.96875 	0.5 	39.8411 	-0.0984976 	4.84855e-21
0.28125 	-0.96875 	0.5 	39.8441 	-0.0958592 	-4.61504e-21
0.296875 	-0.96875 	0.5 	39.847 	-0.0930949 	-1.91002e-20
0.3125 	-0.96875 	0.5 	39.8501 	-0.0892724 	7.739e-20
0.328125 	-0.96875 	0.5 	39.8529 	-0.0863969 	4.00487e-20
0.34375 	-0.96875 	0.5 	39.8557 	-0.0835342 	1.02784e-21
0.359375 	-0.96875 	0.5 	39.8576 	-0.0800926 	-2.97959e-21
0.375 	-0.96875 	0.5 	39.8593 	-0.0765595 	3.97907e-21
0.390625 	-0.96875 	0.5 	39.8611 	-0.0730315 	1.0973e-20
0.40625 	-0.96875 	0.5 	39.8622 	-0.0694295 	7.48336e-21
0.421875 	-0.96875 	0.5 	39.863 	-0.0654808 	-8.96334e-21
0.4375 	-0.96875 	0.5 	39.8642 	-0.0615391 	-4.50647e-20
0.453125 	-0.96875 	0.5 	39.8648 	-0.0582842 	-3.2024e-20
0.46875 	-0.96875 	0.5 	39.8655 	-0.0550293 	-1.89833e-20
0.484375 	-0.96875 	0.5 	39.8658 	-0.051816 	-2.97376e-21
0.5 	-0.96875 	0.5 	39.8656 	-0.0487094 	-1.30491e-21
0.515625 	-0.96875 	0.5 	39.8654 	-0.0454033 	4.98929e-21
0.53125 	-0.96875 	0.5 	39.8653 	-0.0414404 	6.29169e-20
0.546875 	-0.96875 	0.5 	39.8647 	-0.037951 	5.2705e-20
0.5625 	-0.96875 	0.5 	39.864 	-0.0348355 	-5.71833e-20
0.578125 	-0.96875 	0.5 	39.8632 	-0.0322094 	5.42379e-22
0.59375 	-0.96875 	0.5 	39.8618 	-0.0289821 	2.56e-20
0.609375 	-0.96875 	0.5 	39.8604 	-0.0262184 	1.88559e-20
0.625 	-0.96875 	0.5 	39.859 	-0.0235917 	9.20023e-22
0.640625 	-0.96875 	0.5 	39.8572 	-0.021509 	1.80892e-20
0.65625 	-0.96875 	0.5 	39.8555 	-0.0189221 	7.18106e-21
0.671875 	-0.96875 	0.5 	39.8531 	-0.0166845 	5.14517e-20
0.6875 	-0.96875 	0.5 	39.8511 	-0.014562 	-1.05304e-19
0.703125 	-0.96875 	0.5 	39.8492 	-0.0130856 	-8.41267e-20
0.71875 	-0.96875 	0.5 	39.8471 	-0.0111988 	-2.32198e-20
0.734375 	-0.96875 	0.5 	39.8446 	-0.00972932 	-4.69348e-20
0.75 	-0.96875 	0.5 	39.8425 	-0.00802259 	-4.24075e-21
0.765625 	-0.96875 	0.5 	39.8394 	-0.00712723 	1.8639e-20
0.78125 	-0.96875 	0.5 	39.8367 	-0.00611224 	-1.51827e-20
0.796875 	-0.96875 	0.5 	39.8336 	-0.00532336 	-4.28133e-20
0.8125 	-0.96875 	0.5 	39.831 	-0.00440405 	-6.49039e-20
0.828125 	-0.96875 	0.5 	39.8283 	-0.00371598 	4.84383e-20
0.84375 	-0.96875 	0.5 	39.8256 	-0.00411807 	1.29269e-20
0.859375 	-0.96875 	0.5 	39.8237 	-0.00402683 	2.11117e-21
0.875 	-0.96875 	0.5 	39.8208 	-0.00411166 	1.77326e-20
0.890625 	-0.96875 	0.5 	39.8178 	-0.00451582 	1.55506e-20
0.90625 	-0.96875 	0.5 	39.8149 	-0.0053627 	8.17161e-22
0.921875 	-0.96875 	0.5 	39.8124 	-0.0057109 	1.37457e-20
0.9375 	-0.96875 	0.5 	39.8096 	-0.00661735 	6.54814e-21
0.953125 	-0.96875 	0.5 	39.8069 	-0.00748404 	-3.93396e-21
0.96875 	-0.96875 	0.5 	39.8045 	-0.00885993 	-1.19102e-20
0.984375 	-0.96875 	0.5 	39.802 	-0.0102107 	-1.35454e-20
1 	-0.96875 	0.5 	39.7994 	-0.0114919 	-1.92654e-20
1.01562 	-0.96875 	0.5 	39.7969 	-0.0124661 	-2.82666e-20
1.03125 	-0.96875 	0.5 	39.7947 	-0.0142046 	-1.23983e-20
1.04688 	-0.96875 	0.5 	39.7923 	-0.0160916 	-2.55284e-20
1.0625 	-0.96875 	0.5 	39.7907 	-0.0176733 	3.57327e-21
1.07812 	-0.96875 	0.5 	39.7883 	-0.0199136 	3.18436e-20
1.09375 	-0.96875 	0.5 	39.7869 	-0.0235764 	3.45084e-20
1.10938 	-0.96875 	0.5 	39.7852 	-0.0256973 	1.80589e-20
1.125 	-0.96875 	0.5 	39.7835 	-0.0278049 	1.3596e-21
1.14062 	-0.96875 	0.5 	39.7822 	-0.0304321 	2.1796e-21
1.15625 	-0.96875 	0.5 	39.7808 	-0.0330788 	6.80538e-21
1.17188 	-0.96875 	0.5 	39.7794 	-0.0357267 	1.15437e-20
1.1875 	-0.96875 	0.5 	39.778 	-0.0383746 	1.62821e-20
1.20312 	-0.96875 	0.5 	39.777 	-0.0409874 	9.889e-21
1.21875 	-0.96875 	0.5 	39.7763 	-0.0436942 	1.16024e-20
1.23438 	-0.96875 	0.5 	39.7757 	-0.0464087 	1.32836e-20
1.25 	-0.96875 	0.5 	39.7751 	-0.0493086 	1.41901e-20
1.26562 	-0.96875 	0.5 	39.7744 	-0.0522854 	2.5237e-20
1.28125 	-0.96875 	0.5 	39.774 	-0.0552065 	2.3988e-20
1.29688 	-0.96875 	0.5 	39.7735 	-0.058029 	1.82697e-20
1.3125 	-0.96875 	0.5 	39.7736 	-0.0610037 	1.53264e-20
1.32812 	-0.96875 	0.5 	39.7739 	-0.0641343 	5.31677e-20
1.34375 	-0.96875 	0.5 	39.7739 	-0.0676379 	2.61244e-20
1.35938 	-0.96875 	0.5 	39.7743 	-0.0721685 	4.61564e-21
1.375 	-0.96875 	0.5 	39.7748 	-0.074694 	2.22518e-21
1.39062 	-0.96875 	0.5 	39.7753 	-0.0770116 	1.8169e-21
1.40625 	-0.96875 	0.5 	39.7758 	-0.0796647 	-1.36354e-21
1.42188 	-0.96875 	0.5 	39.7766 	-0.0823989 	-1.31617e-20
1.4375 	-0.96875 	0.5 	39.7774 	-0.0851522 	-3.46576e-20
1.45312 	-0.96875 	0.5 	39.7781 	-0.0879055 	-5.61534e-20
1.46875 	-0.96875 	0.5 	39.7789 	-0.0905224 	-2.66336e-20
1.48438 	-0.96875 	0.5 	39.7802 	-0.093369 	1.26711e-20
-0.5 	-0.953125 	0.5 	39.6583 	0.00603859 	7.57782e-22
-0.484375 	-0.953125 	0.5 	39.6585 	0.00110973 	1.22812e-22
-0.46875 	-0.953125 	0.5 	39.6591 	-0.00327389 	2.07849e-22
-0.453125 	-0.953125 	0.5 	39.6599 	-0.00886981 	2.20818e-22
-0.4375 	-0.953125 	0.5 	39.6603 	-0.0151556 	1.43634e-24
-0.421875 	-0.953125 	0.5 	39.6613 	-0.0202697 	7.752e-24
-0.40625 	-0.953125 	0.5 	39.6627 	-0.0249795 	4.36895e-22
-0.390625 	-0.953125 	0.5 	39.6641 	-0.0308101 	1.80011e-22
-0.375 	-0.953125 	0.5 	39.6655 	-0.0367433 	5.43461e-23
-0.359375 	-0.953125 	0.5 	39.6671 	-0.0407352 	7.30512e-23
-0.34375 	-0.953125 	0.5 	39.6693 	-0.0450628 	6.44547e-23
-0.328125 	-0.953125 	0.5 	39.6714 	-0.0496909 	-3.07362e-21
-0.3125 	-0.953125 	0.5 	39.6741 	-0.055421 	-2.8431e-22
-0.296875 	-0.953125 	0.5 	39.6769 	-0.0604603 	1.54569e-21
-0.28125 	-0.953125 	0.5 	39.6808 	-0.0648288 	-5.32634e-21
-0.265625 	-0.953125 	0.5 	39.683 	-0.0697335 	6.41537e-22
-0.25 	-0.953125 	0.5 	39.6866 	-0.0740007 	-1.94671e-21
-0.234375 	-0.953125 	0.5 	39.6894 	-0.078544 	-4.26397e-21
-0.21875 	-0.953125 	0.5 	39.6943 	-0.0825492 	-1.16711e-20
-0.203125 	-0.953125 	0.5 	39.6974 	-0.0872865 	1.19882e-21
-0.1875 	-0.953125 	0.5 	39.7017 	-0.0908127 	6.19655e-21
-0.171875 	-0.953125 	0.5 	39.7057 	-0.0950249 	-3.30904e-22
-0.15625 	-0.953125 	0.5 	39.7105 	-0.0987415 	6.51996e-21
-0.140625 	-0.953125 	0.5 	39.7152 	-0.10217 	2.04623e-22
-0.125 	-0.953125 	0.5 	39.7196 	-0.105605 	1.76208e-22
-0.109375 	-0.953125 	0.5 	39.7246 	-0.108025 	1.32215e-21
-0.09375 	-0.953125 	0.5 	39.7295 	-0.110816 	7.57422e-21
-0.078125 	-0.953125 	0.5 	39.7345 	-0.11334 	1.15505e-20
-0.0625 	-0.953125 	0.5 	39.74 	-0.115109 	4.49431e-21
-0.046875 	-0.953125 	0.5 	39.7453 	-0.11733 	1.00805e-21
-0.03125 	-0.953125 	0.5 	39.7508 	-0.119561 	2.1298e-22
-0.015625 	-0.953125 	0.5 	39.7563 	-0.12067 	1.63339e-20
0 	-0.953125 	0.5 	39.7612 	-0.122157 	7.31288e-20
0.015625 	-0.953125 	0.5 	39.767 	-0.122653 	-2.7346e-21
0.03125 	-0.953125 	0.5 	39.7718 	-0.122698 	1.9198e-21
0.046875 	-0.953125 	0.5 	39.7774 	-0.122799 	4.71423e-21
0.0625 	-0.953125 	0.5 	39.7826 	-0.123051 	1.43509e-20
0.078125 	-0.953125 	0.5 	39.7881 	-0.12261 	1.84468e-20
0.09375 	-0.953125 	0.5 	39.7932 	-0.123276 	-2.2549e-20
0.109375 	-0.953125 	0.5 	39.7984 	-0.122715 	-9.34095e-21
0.125 	-0.953125 	0.5 	39.8035 	-0.121135 	4.05413e-21
0.140625 	-0.953125 	0.5 	39.8088 	-0.119976 	-4.66276e-21
0.15625 	-0.953125 	0.5 	39.8137 	-0.118614 	-3.59212e-20
0.171875 	-0.953125 	0.5 	39.8188 	-0.117497 	4.15354e-21
0.1875 	-0.953125 	0.5 	39.8229 	-0.115519 	-1.3299e-21
0.203125 	-0.953125 	0.5 	39.8268 	-0.112882 	-4.39722e-22
0.21875 	-0.953125 	0.5 	39.831 	-0.110307 	1.05395e-21
0.234375 	-0.953125 	0.5 	39.8353 	-0.107906 	2.52911e-20
0.25 	-0.953125 	0.5 	39.8392 	-0.105304 	-6.72021e-21
0.265625 	-0.953125 	0.5 	39.8432 	-0.102516 	-7.7921e-21
0.28125 	-0.953125 	0.5 	39.8464 	-0.0989833 	-8.50062e-21
0.296875 	-0.953125 	0.5 	39.8492 	-0.0963635 	-4.5045e-20
0.3125 	-0.953125 	0.5 	39.8524 	-0.0923436 	7.19566e-20
0.328125 	-0.953125 	0.5 	39.8554 	-0.0895533 	-3.416e-20
0.34375 	-0.953125 	0.5 	39.8583 	-0.0860413 	-9.73961e-21
0.359375 	-0.953125 	0.5 	39.8604 	-0.0820824 	2.23949e-22
0.375 	-0.953125 	0.5 	39.8619 	-0.0781177 	4.61006e-20
0.390625 	-0.953125 	0.5 	39.8638 	-0.074801 	7.58243e-21
0.40625 	-0.953125 	0.5 	39.8652 	-0.0705174 	5.53765e-21
0.421875 	-0.953125 	0.5 	39.8664 	-0.066973 	-2.6427e-21
0.4375 	-0.953125 	0.5 	39.8675 	-0.0625663 	-5.2792e-20
0.453125 	-0.953125 	0.5 	39.8682 	-0.0593487 	-3.36903e-20
0.46875 	-0.953125 	0.5 	39.8693 	-0.0556578 	6.7459e-20
0.484375 	-0.953125 	0.5 	39.8689 	-0.0517664 	-1.24692e-20
0.5 	-0.953125 	0.5 	39.8684 	-0.0486159 	2.36629e-21
0.515625 	-0.953125 	0.5 	39.8682 	-0.0447659 	2.23585e-20
0.53125 	-0.953125 	0.5 	39.8678 	-0.0411676 	4.38077e-20
0.546875 	-0.953125 	0.5 	39.8673 	-0.037712 	7.65376e-21
0.5625 	-0.953125 	0.5 	39.8669 	-0.03416 	-9.49598e-21
0.578125 	-0.953125 	0.5 	39.8655 	-0.0308543 	-1.01206e-20
0.59375 	-0.953125 	0.5 	39.864 	-0.027943 	-2.37742e-20
0.609375 	-0.953125 	0.5 	39.8628 	-0.024961 	-6.74295e-21
0.625 	-0.953125 	0.5 	39.8611 	-0.0218289 	1.37978e-20
0.640625 	-0.953125 	0.5 	39.859 	-0.0194417 	6.76514e-22
0.65625 	-0.953125 	0.5 	39.8572 	-0.0168915 	-6.98694e-22
0.671875 	-0.953125 	0.5 	39.8548 	-0.0146379 	2.63865e-20
0.6875 	-0.953125 	0.5 	39.8526 	-0.0120121 	-8.57403e-21
0.703125 	-0.953125 	0.5 	39.8505 	-0.010026 	-1.18402e-20
0.71875 	-0.953125 	0.5 	39.8481 	-0.00806569 	-3.07374e-21
0.734375 	-0.953125 	0.5 	39.8456 	-0.00658713 	-3.04747e-21
0.75 	-0.953125 	0.5 	39.8429 	-0.00537435 	1.57048e-21
0.765625 	-0.953125 	0.5 	39.8401 	-0.00427894 	1.07884e-22
0.78125 	-0.953125 	0.5 	39.8371 	-0.00299289 	3.95532e-20
0.796875 	-0.953125 	0.5 	39.834 	-0.00231919 	-2.60466e-20
0.8125 	-0.953125 	0.5 	39.8312 	-0.00153895 	-6.56126e-20
0.828125 	-0.953125 	0.5 	39.8282 	-0.00125434 	-4.61771e-20
0.84375 	-0.953125 	0.5 	39.8255 	-0.00106522 	7.06096e-21
0.859375 	-0.953125 	0.5 	39.8227 	-0.0013251 	1.75136e-20
0.875 	-0.953125 	0.5 	39.8195 	-0.00128018 	1.83453e-20
0.890625 	-0.953125 	0.5 	39.8164 	-0.0020944 	2.21362e-20
0.90625 	-0.953125 	0.5 	39.8135 	-0.00228093 	1.72618e-21
0.921875 	-0.953125 	0.5 	39.8108 	-0.00303132 	9.34356e-21
0.9375 	-0.953125 	0.5 	39.808 	-0.00393042 	-3.69193e-22
0.953125 	-0.953125 	0.5 	39.8051 	-0.005 	3.67804e-21
0.96875 	-0.953125 	0.5 	39.8025 	-0.00581827 	-9.57005e-23
0.984375 	-0.953125 	0.5 	39.7998 	-0.00761143 	-1.23393e-20
1 	-0.953125 	0.5 	39.7975 	-0.00906623 	-3.1699e-20
1.01562 	-0.953125 	0.5 	39.7948 	-0.0106591 	-1.3806e-20
1.03125 	-0.953125 	0.5 	39.7923 	-0.0120127 	-9.09679e-21
1.04688 	-0.953125 	0.5 	39.7901 	-0.0139806 	1.95947e-20
1.0625 	-0.953125 	0.5 	39.7876 	-0.0163192 	5.82227e-20
1.07812 	-0.953125 	0.5 	39.7854 	-0.0183796 	3.3752e-20
1.09375 	-0.953125 	0.5 	39.7839 	-0.0212932 	2.29965e-20
1.10938 	-0.953125 	0.5 	39.7821 	-0.0236619 	1.11385e-20
1.125 	-0.953125 	0.5 	39.7804 	-0.0256992 	-2.67829e-21
1.14062 	-0.953125 	0.5 	39.7787 	-0.0290472 	6.41266e-21
1.15625 	-0.953125 	0.5 	39.7771 	-0.0319985 	4.54098e-20
1.17188 	-0.953125 	0.5 	39.7759 	-0.034494 	3.2941e-20
1.1875 	-0.953125 	0.5 	39.7748 	-0.0370095 	4.42471e-21
1.20312 	-0.953125 	0.5 	39.7739 	-0.0404329 	4.91078e-21
1.21875 	-0.953125 	0.5 	39.7727 	-0.0433695 	8.07782e-21
1.23438 	-0.953125 	0.5 	39.7719 	-0.0454204 	1.25321e-20
1.25 	-0.953125 	0.5 	39.7714 	-0.0490737 	1.02907e-20
1.26562 	-0.953125 	0.5 	39.77 	-0.0516131 	9.04425e-20
1.28125 	-0.953125 	0.5 	39.7701 	-0.0546902 	3.99778e-20
1.29688 	-0.953125 	0.5 	39.7699 	-0.0577987 	-4.08553e-21
1.3125 	-0.953125 	0.5 	39.77 	-0.0610483 	1.28843e-20
1.32812 	-0.953125 	0.5 	39.7702 	-0.0644341 	3.30594e-20
1.34375 	-0.953125 	0.5 	39.7703 	-0.0677944 	3.03773e-20
1.35938 	-0.953125 	0.5 	39.7707 	-0.0712731 	1.788e-20
1.375 	-0.953125 	0.5 	39.7712 	-0.0740228 	2.4224e-20
1.39062 	-0.953125 	0.5 	39.7717 	-0.0771625 	2.539e-20
1.40625 	-0.953125 	0.5 	39.7722 	-0.0804047 	1.03888e-20
1.42188 	-0.953125 	0.5 	39.7732 	-0.0833253 	4.5873e-21
1.4375 	-0.953125 	0.5 	39.774 	-0.0860999 	-4.39472e-20
1.45312 	-0.953125 	0.5 	39.7747 	-0.0888893 	-7.89301e-20
1.46875 	-0.953125 	0.5 	39.7755 	-0.0914098 	-1.3355e-20
1.48438 	-0.953125 	0.5 	39.7769 	-0.0943079 	4.1154e-20
-0.5 	-0.9375 	0.5 	39.6524 	0.00586523 	6.3881e-22
-0.484375 	-0.9375 	0.5 	39.6529 	0.00105117 	5.62106e-22
-0.46875 	-0.9375 	0.5 	39.6535 	-0.0037629 	4.85401e-22
-0.453125 	-0.9375 	0.5 	39.6541 	-0.00939691 	3.14033e-22
-0.4375 	-0.9375 	0.5 	39.6548 	-0.0151623 	2.51495e-22
-0.421875 	-0.9375 	0.5 	39.6554 	-0.0209342 	5.54582e-23
-0.40625 	-0.9375 	0.5 	39.657 	-0.0267481 	-1.5663e-23
-0.390625 	-0.9375 	0.5 	39.6584 	-0.0326147 	-7.15613e-23
-0.375 	-0.9375 	0.5 	39.6598 	-0.0385544 	-3.02908e-22
-0.359375 	-0.9375 	0.5 	39.6619 	-0.04317 	-4.50118e-22
-0.34375 	-0.9375 	0.5 	39.6638 	-0.0478348 	-6.26067e-22
-0.328125 	-0.9375 	0.5 	39.6663 	-0.0522639 	-3.80756e-21
-0.3125 	-0.9375 	0.5 	39.6687 	-0.0583563 	2.84159e-22
-0.296875 	-0.9375 	0.5 	39.6715 	-0.0638134 	3.19339e-21
-0.28125 	-0.9375 	0.5 	39.6743 	-0.0683508 	9.93165e-23
-0.265625 	-0.9375 	0.5 	39.6774 	-0.072953 	1.02056e-21
-0.25 	-0.9375 	0.5 	39.6806 	-0.0776325 	-3.43288e-22
-0.234375 	-0.9375 	0.5 	39.6843 	-0.0824228 	-5.74765e-21
-0.21875 	-0.9375 	0.5 	39.6884 	-0.086766 	-5.87683e-21
-0.203125 	-0.9375 	0.5 	39.6925 	-0.0911017 	-2.91421e-21
-0.1875 	-0.9375 	0.5 	39.6964 	-0.0952934 	-4.42623e-21
-0.171875 	-0.9375 	0.5 	39.7004 	-0.100081 	-6.60179e-21