-0.5 	-1 	0.5 	39.7917 	-0.0926091 	-1.00846e-20
-0.484375 	-1 	0.5 	39.7939 	-0.097477 	-5.82261e-20
-0.46875 	-1 	0.5 	39.7962 	-0.102251 	-7.96891e-21
-0.453125 	-1 	0.5 	39.7998 	-0.107042 	-5.92788e-21
-0.4375 	-1 	0.5 	39.803 	-0.111577 	-2.04797e-21
-0.421875 	-1 	0.5 	39.806 	-0.116089 	7.42626e-21
-0.40625 	-1 	0.5 	39.8098 	-0.120177 	-2.87026e-20
-0.390625 	-1 	0.5 	39.8135 	-0.12502 	-1.43319e-20
-0.375 	-1 	0.5 	39.8173 	-0.129583 	-1.0279e-20
-0.359375 	-1 	0.5 	39.8216 	-0.133519 	-6.07652e-21
-0.34375 	-1 	0.5 	39.8257 	-0.137244 	-4.4753e-21
-0.328125 	-1 	0.5 	39.8305 	-0.141099 	-2.63821e-20
-0.3125 	-1 	0.5 	39.8357 	-0.144788 	-2.01897e-20
-0.296875 	-1 	0.5 	39.8407 	-0.148632 	1.40131e-20
-0.28125 	-1 	0.5 	39.8458 	-0.151666 	2.3386e-20
-0.265625 	-1 	0.5 	39.8511 	-0.155035 	1.22677e-21
-0.25 	-1 	0.5 	39.8564 	-0.157976 	-7.74266e-21
-0.234375 	-1 	0.5 	39.8627 	-0.161353 	4.58543e-21
-0.21875 	-1 	0.5 	39.869 	-0.1643 	3.02754e-21
-0.203125 	-1 	0.5 	39.8754 	-0.166884 	4.6192e-21
-0.1875 	-1 	0.5 	39.882 	-0.168688 	4.78572e-21
-0.171875 	-1 	0.5 	39.8886 	-0.170493 	4.95224e-21
-0.15625 	-1 	0.5 	39.8956 	-0.172522 	6.45623e-21
-0.140625 	-1 	0.5 	39.9029 	-0.173727 	2.24709e-20
-0.125 	-1 	0.5 	39.9099 	-0.174759 	1.62279e-20
-0.109375 	-1 	0.5 	39.9172 	-0.176019 	-6.25124e-21
-0.09375 	-1 	0.5 	39.9251 	-0.1762 	-1.65903e-21
-0.078125 	-1 	0.5 	39.9321 	-0.176301 	-3.92199e-22
-0.0625 	-1 	0.5 	39.9392 	-0.176172 	8.16163e-21
-0.046875 	-1 	0.5 	39.9471 	-0.175079 	8.82086e-21
-0.03125 	-1 	0.5 	39.9544 	-0.173895 	-1.49862e-21
-0.015625 	-1 	0.5 	39.9624 	-0.171919 	-2.46576e-23
0 	-1 	0.5 	39.9702 	-0.170479 	-1.54318e-22
0.015625 	-1 	0.5 	39.9774 	-0.167858 	9.42612e-22
0.03125 	-1 	0.5 	39.9857 	-0.165098 	9.23517e-22
0.046875 	-1 	0.5 	39.9928 	-0.162853 	-8.20579e-22
0.0625 	-1 	0.5 	39.9994 	-0.159903 	3.14383e-21
0.078125 	-1 	0.5 	40.0069 	-0.155871 	1.09295e-21
0.09375 	-1 	0.5 	40.014 	-0.15223 	-1.79213e-21
0.109375 	-1 	0.5 	40.0214 	-0.147357 	-1.42344e-20
0.125 	-1 	0.5 	40.0277 	-0.142596 	9.55692e-22
0.140625 	-1 	0.5 	40.0339 	-0.137638 	2.45238e-21
0.15625 	-1 	0.5 	40.0405 	-0.132289 	8.08823e-21
0.171875 	-1 	0.5 	40.0469 	-0.127113 	1.81205e-20
0.1875 	-1 	0.5 	40.0521 	-0.119044 	-1.26252e-20
0.203125 	-1 	0.5 	40.0574 	-0.113481 	2.26026e-21
0.21875 	-1 	0.5 	40.0631 	-0.106926 	-1.01269e-21
0.234375 	-1 	0.5 	40.0679 	-0.101096 	-2.5204e-20
0.25 	-1 	0.5 	40.072 	-0.0920795 	1.58674e-20
0.265625 	-1 	0.5 	40.0758 	-0.0847445 	2.48962e-20
0.28125 	-1 	0.5 	40.0794 	-0.0775798 	-1.20919e-20
0.296875 	-1 	0.5 	40.0826 	-0.0689804 	-7.43951e-21
0.3125 	-1 	0.5 	40.086 	-0.0613138 	7.16904e-21
0.328125 	-1 	0.5 	40.0868 	-0.0526227 	2.46183e-20
0.34375 	-1 	0.5 	40.0897 	-0.0447393 	1.20715e-20
0.359375 	-1 	0.5 	40.0908 	-0.0363931 	4.93824e-21
0.375 	-1 	0.5 	40.0929 	-0.0262126 	-9.86733e-21
0.390625 	-1 	0.5 	40.0936 	-0.0177076 	-4.43486e-21
0.40625 	-1 	0.5 	40.0934 	-0.0098953 	-1.25925e-21
0.421875 	-1 	0.5 	40.0932 	-0.00215141 	4.30456e-22
0.4375 	-1 	0.5 	40.0926 	0.007718 	2.05545e-21
0.453125 	-1 	0.5 	40.0922 	0.0148655 	-2.48519e-20
0.46875 	-1 	0.5 	40.09 	0.0231795 	-1.6544e-20
0.484375 	-1 	0.5 	40.0875 	0.0317273 	-3.78575e-22
0.5 	-1 	0.5 	40.0847 	0.0403254 	6.48115e-21
0.515625 	-1 	0.5 	40.0824 	0.0492578 	2.63919e-20
0.53125 	-1 	0.5 	40.079 	0.0551408 	1.1234e-20
0.546875 	-1 	0.5 	40.0774 	0.061867 	1.0878e-21
0.5625 	-1 	0.5 	40.0733 	0.0699592 	-1.27946e-22
0.578125 	-1 	0.5 	40.0683 	0.077455 	-1.1777e-21
0.59375 	-1 	0.5 	40.0637 	0.0841904 	-9.06165e-22
0.609375 	-1 	0.5 	40.058 	0.0904438 	1.56001e-20
0.625 	-1 	0.5 	40.0529 	0.0977271 	3.43403e-21
0.640625 	-1 	0.5 	40.0472 	0.104836 	-8.03035e-21
0.65625 	-1 	0.5 	40.0414 	0.110002 	1.68533e-21
0.671875 	-1 	0.5 	40.0354 	0.114788 	9.1592e-21
0.6875 	-1 	0.5 	40.0287 	0.119887 	2.41645e-21
0.703125 	-1 	0.5 	40.0215 	0.123787 	-9.6119e-21
0.71875 	-1 	0.5 	40.0149 	0.12959 	-3.82172e-21
0.734375 	-1 	0.5 	40.0088 	0.133857 	-5.04327e-21
0.75 	-1 	0.5 	40.0017 	0.134991 	6.25732e-22
0.765625 	-1 	0.5 	39.994 	0.136904 	1.18745e-22
0.78125 	-1 	0.5 	39.9872 	0.139643 	7.08386e-23
0.796875 	-1 	0.5 	39.9813 	0.144926 	1.64759e-22
0.8125 	-1 	0.5 	39.9731 	0.146129 	-1.60501e-21
0.828125 	-1 	0.5 	39.9667 	0.147509 	-2.40456e-21
0.84375 	-1 	0.5 	39.9584 	0.148171 	-4.74044e-21
0.859375 	-1 	0.5 	39.9512 	0.149141 	5.21532e-22
0.875 	-1 	0.5 	39.9439 	0.14878 	7.59459e-21
0.890625 	-1 	0.5 	39.9367 	0.149477 	-1.88649e-21
0.90625 	-1 	0.5 	39.9291 	0.149112 	-4.85947e-22
0.921875 	-1 	0.5 	39.9215 	0.147806 	-6.79076e-21
0.9375 	-1 	0.5 	39.9143 	0.147047 	-6.56515e-21
0.953125 	-1 	0.5 	39.9078 	0.146281 	-1.14757e-20
0.96875 	-1 	0.5 	39.9021 	0.144159 	-2.16766e-21
0.984375 	-1 	0.5 	39.8954 	0.143134 	-6.12872e-21
1 	-1 	0.5 	39.888 	0.144244 	1.80699e-20
1.01562 	-1 	0.5 	39.8828 	0.141405 	6.98912e-21
1.03125 	-1 	0.5 	39.8764 	0.138529 	1.97398e-20
1.04688 	-1 	0.5 	39.8718 	0.13318 	1.6933e-21
1.0625 	-1 	0.5 	39.8672 	0.128197 	-1.27002e-20
1.07812 	-1 	0.5 	39.8617 	0.125591 	-1.02818e-20
1.09375 	-1 	0.5 	39.8559 	0.123171 	-6.58165e-21
1.10938 	-1 	0.5 	39.8502 	0.120752 	-2.88146e-21
1.125 	-1 	0.5 	39.8449 	0.11726 	-3.62159e-21
1.14062 	-1 	0.5 	39.8412 	0.11266 	-3.80263e-21
1.15625 	-1 	0.5 	39.8371 	0.107864 	-5.94626e-21
1.17188 	-1 	0.5 	39.8335 	0.10404 	-5.92552e-20
1.1875 	-1 	0.5 	39.8296 	0.100108 	-7.46927e-20
1.20312 	-1 	0.5 	39.8262 	0.0969342 	2.5655e-20
1.21875 	-1 	0.5 	39.8238 	0.0903545 	2.00505e-22
1.23438 	-1 	0.5 	39.8211 	0.0850772 	-1.32209e-22
1.25 	-1 	0.5 	39.8184 	0.0807551 	-1.00719e-20
1.26562 	-1 	0.5 	39.8158 	0.0766612 	-2.23077e-20
1.28125 	-1 	0.5 	39.8128 	0.0727699 	-3.11272e-20
1.29688 	-1 	0.5 	39.8105 	0.0684608 	-5.18174e-20
1.3125 	-1 	0.5 	39.8081 	0.0638879 	-5.12529e-20
1.32812 	-1 	0.5 	39.8058 	0.0593113 	-4.80505e-20
1.34375 	-1 	0.5 	39.8036 	0.0547186 	-3.33503e-20
1.35938 	-1 	0.5 	39.8022 	0.0501262 	3.2459e-20
1.375 	-1 	0.5 	39.8008 	0.0455021 	-1.42546e-20
1.39062 	-1 	0.5 	39.7996 	0.0399503 	-2.18324e-20
1.40625 	-1 	0.5 	39.7985 	0.0351597 	-2.29073e-20
1.42188 	-1 	0.5 	39.7983 	0.0312265 	-7.22731e-20
1.4375 	-1 	0.5 	39.7979 	0.0263526 	1.58016e-20
1.45312 	-1 	0.5 	39.7983 	0.0214925 	1.33587e-19
1.46875 	-1 	0.5 	39.798 	0.0173853 	9.14745e-20
1.48438 	-1 	0.5 	39.7972 	0.013562 	1.12329e-20
-0.5 	-0.984375 	0.5 	39.7862 	-0.095418 	-7.67824e-21
-0.484375 	-0.984375 	0.5 	39.7884 	-0.100288 	-5.76674e-20
-0.46875 	-0.984375 	0.5 	39.7908 	-0.105053 	1.87139e-21
-0.453125 	-0.984375 	0.5 	39.7945 	-0.10988 	4.2752e-21
-0.4375 	-0.984375 	0.5 	39.7978 	-0.114564 	5.52678e-21
-0.421875 	-0.984375 	0.5 	39.8012 	-0.119432 	9.25829e-21
-0.40625 	-0.984375 	0.5 	39.805 	-0.124185 	-4.57605e-20
-0.390625 	-0.984375 	0.5 	39.8086 	-0.128917 	-8.36446e-20
-0.375 	-0.984375 	0.5 	39.8122 	-0.133139 	-1.26284e-20
-0.359375 	-0.984375 	0.5 	39.8168 	-0.137719 	-3.63786e-21
-0.34375 	-0.984375 	0.5 	39.8214 	-0.141994 	-3.90708e-21
-0.328125 	-0.984375 	0.5 	39.8262 	-0.145709 	-1.46518e-20
-0.3125 	-0.984375 	0.5 	39.8313 	-0.149651 	2.53713e-20
-0.296875 	-0.984375 	0.5 	39.8363 	-0.153807 	5.69962e-20
-0.28125 	-0.984375 	0.5 	39.8421 	-0.157563 	6.93031e-22
-0.265625 	-0.984375 	0.5 	39.8476 	-0.161363 	5.14981e-21
-0.25 	-0.984375 	0.5 	39.853 	-0.164153 	1.39573e-21
-0.234375 	-0.984375 	0.5 	39.8593 	-0.167307 	6.41902e-21
-0.21875 	-0.984375 	0.5 	39.866 	-0.170352 	1.59498e-20
-0.203125 	-0.984375 	0.5 	39.8728 	-0.173332 	1.72936e-21
-0.1875 	-0.984375 	0.5 	39.8796 	-0.175423 	2.32829e-21
-0.171875 	-0.984375 	0.5 	39.8862 	-0.177339 	3.30895e-21
-0.15625 	-0.984375 	0.5 	39.8936 	-0.179098 	2.51192e-21
-0.140625 	-0.984375 	0.5 	39.9011 	-0.180786 	3.96096e-21
-0.125 	-0.984375 	0.5 	39.9083 	-0.182033 	8.51817e-21
-0.109375 	-0.984375 	0.5 	39.9159 	-0.183088 	-4.4318e-21
-0.09375 	-0.984375 	0.5 	39.9237 	-0.183549 	-4.04996e-21
-0.078125 	-0.984375 	0.5 	39.9316 	-0.183811 	-6.90757e-22
-0.0625 	-0.984375 	0.5 	39.9391 	-0.183165 	6.37589e-22
-0.046875 	-0.984375 	0.5 	39.9472 	-0.182101 	2.40575e-22
-0.03125 	-0.984375 	0.5 	39.9553 	-0.181588 	7.13762e-22
-0.015625 	-0.984375 	0.5 	39.9637 	-0.180137 	3.41612e-22
0 	-0.984375 	0.5 	39.9717 	-0.178257 	3.52194e-22
0.015625 	-0.984375 	0.5 	39.9799 	-0.176453 	2.18871e-21
0.03125 	-0.984375 	0.5 	39.9885 	-0.17363 	7.79626e-22
0.046875 	-0.984375 	0.5 	39.9966 	-0.169527 	-5.93307e-21
0.0625 	-0.984375 	0.5 	40.0038 	-0.166067 	-3.93831e-21
0.078125 	-0.984375 	0.5 	40.0109 	-0.162834 	-9.22166e-22
0.09375 	-0.984375 	0.5 	40.0179 	-0.158811 	-7.73398e-22
0.109375 	-0.984375 	0.5 	40.0253 	-0.154539 	1.38835e-20
0.125 	-0.984375 	0.5 	40.0325 	-0.149989 	1.57892e-20
0.140625 	-0.984375 	0.5 	40.0394 	-0.143928 	1.92101e-21
0.15625 	-0.984375 	0.5 	40.0462 	-0.137991 	1.27646e-20
0.171875 	-0.984375 	0.5 	40.0524 	-0.132453 	3.38797e-20
0.1875 	-0.984375 	0.5 	40.0582 	-0.124763 	8.79603e-21
0.203125 	-0.984375 	0.5 	40.0639 	-0.118234 	9.94456e-21
0.21875 	-0.984375 	0.5 	40.0696 	-0.111696 	7.46316e-21
0.234375 	-0.984375 	0.5 	40.0744 	-0.104558 	-5.80669e-22
0.25 	-0.984375 	0.5 	40.079 	-0.0963083 	3.18043e-20
0.265625 	-0.984375 	0.5 	40.0835 	-0.0887021 	1.18631e-20
0.28125 	-0.984375 	0.5 	40.0869 	-0.0806946 	2.15733e-22
0.296875 	-0.984375 	0.5 	40.0901 	-0.072139 	5.57265e-21
0.3125 	-0.984375 	0.5 	40.0935 	-0.063114 	3.34576e-21
0.328125 	-0.984375 	0.5 	40.0947 	-0.0549668 	4.61484e-21
0.34375 	-0.984375 	0.5 	40.0964 	-0.0465711 	8.89892e-21
0.359375 	-0.984375 	0.5 	40.0984 	-0.0377111 	9.82758e-22
0.375 	-0.984375 	0.5 	40.1002 	-0.0279367 	-5.69947e-21
0.390625 	-0.984375 	0.5 	40.1017 	-0.0185072 	-8.32473e-21
0.40625 	-0.984375 	0.5 	40.1019 	-0.0105404 	-4.90069e-21
0.421875 	-0.984375 	0.5 	40.1011 	-0.00222848 	-1.6743e-21
0.4375 	-0.984375 	0.5 	40.1005 	0.00765152 	-6.16461e-23
0.453125 	-0.984375 	0.5 	40.1001 	0.016603 	-1.31412e-20
0.46875 	-0.984375 	0.5 	40.0978 	0.0249637 	-7.80526e-22
0.484375 	-0.984375 	0.5 	40.0963 	0.0333838 	-9.46725e-22
0.5 	-0.984375 	0.5 	40.0934 	0.0435153 	-2.17559e-20
0.515625 	-0.984375 	0.5 	40.0899 	0.0511308 	-1.34054e-20
0.53125 	-0.984375 	0.5 	40.0865 	0.058719 	9.4019e-21
0.546875 	-0.984375 	0.5 	40.0835 	0.0659494 	3.37251e-21
0.5625 	-0.984375 	0.5 	40.0788 	0.0735976 	2.24663e-21
0.578125 	-0.984375 	0.5 	40.0745 	0.0813502 	6.43068e-22
0.59375 	-0.984375 	0.5 	40.0694 	0.0894773 	1.46617e-22
0.609375 	-0.984375 	0.5 	40.064 	0.0970975 	1.09871e-21
0.625 	-0.984375 	0.5 	40.0593 	0.103611 	6.27182e-21
0.640625 	-0.984375 	0.5 	40.0538 	0.110084 	6.8328e-21
0.65625 	-0.984375 	0.5 	40.0481 	0.115855 	4.63896e-21
0.671875 	-0.984375 	0.5 	40.0408 	0.121668 	6.1894e-21
0.6875 	-0.984375 	0.5 	40.0317 	0.127616 	1.04041e-20
0.703125 	-0.984375 	0.5 	40.0258 	0.131495 	-3.213e-21
0.71875 	-0.984375 	0.5 	40.0189 	0.135623 	-1.09384e-20
0.734375 	-0.984375 	0.5 	40.0119 	0.141816 	2.71313e-21
0.75 	-0.984375 	0.5 	40.0043 	0.145182 	-2.73553e-21
0.765625 	-0.984375 	0.5 	39.9969 	0.144828 	-8.8057e-22
0.78125 	-0.984375 	0.5 	39.9896 	0.146302 	-2.82447e-22
0.796875 	-0.984375 	0.5 	39.9825 	0.150242 	-8.33239e-22
0.8125 	-0.984375 	0.5 	39.9751 	0.15365 	-1.63055e-21
0.828125 	-0.984375 	0.5 	39.9671 	0.154477 	-3.79113e-21
0.84375 	-0.984375 	0.5 	39.9589 	0.155369 	-4.7955e-21
0.859375 	-0.984375 	0.5 	39.9513 	0.156819 	-3.31664e-21
0.875 	-0.984375 	0.5 	39.9441 	0.15691 	-1.53324e-21
0.890625 	-0.984375 	0.5 	39.9364 	0.157081 	-1.84968e-20
0.90625 	-0.984375 	0.5 	39.9286 	0.157263 	2.46939e-21
0.921875 	-0.984375 	0.5 	39.921 	0.15603 	6.65598e-21
0.9375 	-0.984375 	0.5 	39.9139 	0.152996 	-3.67959e-21
0.953125 	-0.984375 	0.5 	39.9073 	0.151872 	-3.07842e-21
0.96875 	-0.984375 	0.5 	39.9011 	0.152686 	-2.5467e-20
0.984375 	-0.984375 	0.5 	39.8943 	0.151836 	-3.14174e-20
1 	-0.984375 	0.5 	39.8864 	0.147799 	7.07302e-21
1.01562 	-0.984375 	0.5 	39.8807 	0.146393 	4.71839e-21
1.03125 	-0.984375 	0.5 	39.8746 	0.14297 	1.17975e-20
1.04688 	-0.984375 	0.5 	39.8698 	0.13794 	-6.44136e-21
1.0625 	-0.984375 	0.5 	39.863 	0.134981 	-5.22206e-21
1.07812 	-0.984375 	0.5 	39.857 	0.131662 	-1.16068e-21
1.09375 	-0.984375 	0.5 	39.8512 	0.129321 	2.33905e-21
1.10938 	-0.984375 	0.5 	39.846 	0.126433 	6.38655e-21
1.125 	-0.984375 	0.5 	39.8404 	0.121764 	7.80132e-22
1.14062 	-0.984375 	0.5 	39.8362 	0.117236 	7.16391e-21
1.15625 	-0.984375 	0.5 	39.8335 	0.11255 	-1.7415e-21
1.17188 	-0.984375 	0.5 	39.8294 	0.107754 	-3.88513e-21
1.1875 	-0.984375 	0.5 	39.8252 	0.102957 	-6.02875e-21
1.20312 	-0.984375 	0.5 	39.8216 	0.0984081 	-5.84764e-21
1.21875 	-0.984375 	0.5 	39.819 	0.0938564 	-1.34781e-20
1.23438 	-0.984375 	0.5 	39.816 	0.089177 	-2.96222e-20
1.25 	-0.984375 	0.5 	39.8131 	0.0844784 	-4.63094e-20
1.26562 	-0.984375 	0.5 	39.8101 	0.0797871 	-6.13288e-20
1.28125 	-0.984375 	0.5 	39.8077 	0.0750518 	-4.465e-20
1.29688 	-0.984375 	0.5 	39.8053 	0.0706548 	-2.01904e-20
1.3125 	-0.984375 	0.5 	39.8031 	0.0659748 	-1.50007e-20
1.32812 	-0.984375 	0.5 	39.8009 	0.0612947 	-9.811e-21
1.34375 	-0.984375 	0.5 	39.7988 	0.0566146 	-4.62128e-21
1.35938 	-0.984375 	0.5 	39.7971 	0.0515038 	6.76559e-21
1.375 	-0.984375 	0.5 	39.796 	0.0462131 	8.12511e-22
1.39062 	-0.984375 	0.5 	39.7949 	0.0408484 	-1.02107e-20
1.40625 	-0.984375 	0.5 	39.7938 	0.0355133 	-1.97232e-20
1.42188 	-0.984375 	0.5 	39.7932 	0.0306058 	3.61427e-21
1.4375 	-0.984375 	0.5 	39.7932 	0.0261628 	3.28255e-20
1.45312 	-0.984375 	0.5 	39.7932 	0.0217197 	6.20368e-20
1.46875 	-0.984375 	0.5 	39.7932 	0.0172767 	9.12481e-20
1.48438 	-0.984375 	0.5 	39.7929 	0.0130957 	6.48288e-20
-0.5 	-0.96875 	0.5 	39.7802 	-0.0976154 	7.13493e-20
-0.484375 	-0.96875 	0.5 	39.7829 	-0.102798 	3.7339e-20
-0.46875 	-0.96875 	0.5 	39.7854 	-0.107854 	1.17117e-20
-0.453125 	-0.96875 	0.5 	39.7888 	-0.112745 	3.6439e-20
-0.4375 	-0.96875 	0.5 	39.7923 	-0.117785 	7.69604e-20
-0.421875 	-0.96875 	0.5 	39.7954 	-0.123074 	1.44146e-20
-0.40625 	-0.96875 	0.5 	39.7995 	-0.127817 	3.94716e-20
-0.390625 	-0.96875 	0.5 	39.8035 	-0.132201 	-2.94516e-20
-0.375 	-0.96875 	0.5 	39.8071 	-0.136694 	-1.49777e-20
-0.359375 	-0.96875 	0.5 	39.8118 	-0.141256 	-8.18478e-21
-0.34375 	-0.96875 	0.5 	39.8164 	-0.146208 	-3.8936e-21
-0.328125 	-0.96875 	0.5 	39.8215 	-0.151022 	-2.14627e-20
-0.3125 	-0.96875 	0.5 	39.8266 	-0.155278 	8.03358e-20
-0.296875 	-0.96875 	0.5 	39.8317 	-0.159387 	2.53516e-20
-0.28125 	-0.96875 	0.5 	39.8376 	-0.163216 	-5.12425e-20
-0.265625 	-0.96875 	0.5 	39.8435 	-0.16671 	-1.72001e-20
-0.25 	-0.96875 	0.5 	39.8497 	-0.170257 	5.19513e-21
-0.234375 	-0.96875 	0.5 	39.8564 	-0.17345 	1.78508e-20
-0.21875 	-0.96875 	0.5 	39.8627 	-0.177071 	7.40588e-21
-0.203125 	-0.96875 	0.5 	39.8699 	-0.179645 	-1.86307e-21
-0.1875 	-0.96875 	0.5 	39.8769 	-0.182125 	1.28323e-21
-0.171875 	-0.96875 	0.5 	39.8836 	-0.184357 	2.92388e-21
-0.15625 	-0.96875 	0.5 	39.8912 	-0.185975 	2.33892e-21
-0.140625 	-0.96875 	0.5 	39.8988 	-0.187636 	3.94431e-21
-0.125 	-0.96875 	0.5 	39.9066 	-0.189496 	6.63167e-22
-0.109375 	-0.96875 	0.5 	39.9148 	-0.189983 	-2.44795e-21
-0.09375 	-0.96875 	0.5 	39.9227 	-0.190593 	-5.08156e-21
-0.078125 	-0.96875 	0.5 	39.9308 	-0.191736 	-1.21529e-21
-0.0625 	-0.96875 	0.5 	39.9395 	-0.191254 	5.82652e-23
-0.046875 	-0.96875 	0.5 	39.9477 	-0.19017 	4.79129e-22
-0.03125 	-0.96875 	0.5 	39.9559 	-0.189775 	4.17422e-22
-0.015625 	-0.96875 	0.5 	39.9643 	-0.188424 	1.69604e-22
0 	-0.96875 	0.5 	39.9723 	-0.186595 	1.29213e-22
0.015625 	-0.96875 	0.5 	39.9818 	-0.184407 	-3.87076e-22
0.03125 	-0.96875 	0.5 	39.9904 	-0.181913 	-2.20895e-22
0.046875 	-0.96875 	0.5 	39.9987 	-0.178385 	-2.99667e-21
0.0625 	-0.96875 	0.5 	40.0062 	-0.174134 	-9.79946e-21
0.078125 	-0.96875 	0.5 	40.0143 	-0.169784 	5.43639e-21
0.09375 	-0.96875 	0.5 	40.022 	-0.166575 	-2.16575e-20
0.109375 	-0.96875 	0.5 	40.0305 	-0.162133 	1.76266e-20
0.125 	-0.96875 	0.5 	40.0374 	-0.15715 	7.0263e-22
0.140625 	-0.96875 	0.5 	40.0447 	-0.151313 	-1.19862e-20
0.15625 	-0.96875 	0.5 	40.0517 	-0.144602 	4.65615e-21
0.171875 	-0.96875 	0.5 	40.058 	-0.138856 	2.47955e-21
0.1875 	-0.96875 	0.5 	40.0644 	-0.131688 	-2.87629e-21
0.203125 	-0.96875 	0.5 	40.071 	-0.122928 	-3.59285e-20
0.21875 	-0.96875 	0.5 	40.0763 	-0.116283 	-1.21735e-20
0.234375 	-0.96875 	0.5 	40.0816 	-0.109038 	-8.39399e-22
0.25 	-0.96875 	0.5 	40.0866 	-0.101429 	2.78682e-21
0.265625 	-0.96875 	0.5 	40.0914 	-0.0934982 	7.87137e-21
0.28125 	-0.96875 	0.5 	40.0953 	-0.0847504 	1.10955e-20
0.296875 	-0.96875 	0.5 	40.0989 	-0.0762719 	5.14729e-21
0.3125 	-0.96875 	0.5 	40.1021 	-0.0672733 	2.23336e-21
0.328125 	-0.96875 	0.5 	40.1051 	-0.0563834 	3.85457e-21
0.34375 	-0.96875 	0.5 	40.1061 	-0.0490344 	6.44976e-21
0.359375 	-0.96875 	0.5 	40.1085 	-0.0389952 	-2.45075e-21
0.375 	-0.96875 	0.5 	40.1103 	-0.0290834 	-1.0708e-20
0.390625 	-0.96875 	0.5 	40.1109 	-0.0197725 	-1.11104e-20
0.40625 	-0.96875 	0.5 	40.1102 	-0.0103102 	-8.68127e-21
0.421875 	-0.96875 	0.5 	40.1092 	-0.00107415 	-1.14693e-20
0.4375 	-0.96875 	0.5 	40.1086 	0.00848461 	-8.36319e-21
0.453125 	-0.96875 	0.5 	40.1082 	0.0185613 	-4.59048e-22
0.46875 	-0.96875 	0.5 	40.1061 	0.027498 	-2.25464e-21
0.484375 	-0.96875 	0.5 	40.1044 	0.0361267 	-2.63617e-21
0.5 	-0.96875 	0.5 	40.1017 	0.0459989 	-1.59174e-20
0.515625 	-0.96875 	0.5 	40.0981 	0.0535036 	2.22956e-21
0.53125 	-0.96875 	0.5 	40.0954 	0.0623193 	1.50675e-20
0.546875 	-0.96875 	0.5 	40.0909 	0.0710984 	5.48258e-21
0.5625 	-0.96875 	0.5 	40.0875 	0.0786632 	1.75985e-21
0.578125 	-0.96875 	0.5 	40.0824 	0.0876164 	3.3683e-21
0.59375 	-0.96875 	0.5 	40.0764 	0.0954806 	1.40495e-21
0.609375 	-0.96875 	0.5 	40.0709 	0.102496 	3.36864e-21
0.625 	-0.96875 	0.5 	40.066 	0.10931 	8.73606e-21
0.640625 	-0.96875 	0.5 	40.0603 	0.114962 	5.63886e-21
0.65625 	-0.96875 	0.5 	40.0539 	0.122138 	1.57281e-21
0.671875 	-0.96875 	0.5 	40.0456 	0.128583 	4.72192e-21
0.6875 	-0.96875 	0.5 	40.038 	0.133565 	2.20237e-21
0.703125 	-0.96875 	0.5 	40.0299 	0.138944 	1.63925e-21
0.71875 	-0.96875 	0.5 	40.023 	0.143844 	2.4592e-21
0.734375 	-0.96875 	0.5 	40.0152 	0.14913 	1.44914e-20
0.75 	-0.96875 	0.5 	40.007 	0.152031 	1.49341e-21
0.765625 	-0.96875 	0.5 	39.9997 	0.154948 	-7.99621e-22
0.78125 	-0.96875 	0.5 	39.9935 	0.15555 	2.00817e-22
0.796875 	-0.96875 	0.5 	39.9854 	0.158696 	-6.69858e-22
0.8125 	-0.96875 	0.5 	39.9767 	0.161515 	1.11262e-21
0.828125 	-0.96875 	0.5 	39.9676 	0.163109 	-6.51021e-21
0.84375 	-0.96875 	0.5 	39.9597 	0.1638 	-5.57214e-21
0.859375 	-0.96875 	0.5 	39.9517 	0.164492 	-4.63408e-21
0.875 	-0.96875 	0.5 	39.9438 	0.16455 	-4.20651e-21
0.890625 	-0.96875 	0.5 	39.936 	0.164623 	-1.18463e-20
0.90625 	-0.96875 	0.5 	39.9282 	0.164702 	-2.91922e-22
0.921875 	-0.96875 	0.5 	39.9206 	0.163654 	6.07862e-21
0.9375 	-0.96875 	0.5 	39.9135 	0.161003 	-1.0701e-21
0.953125 	-0.96875 	0.5 	39.9061 	0.158625 	9.6843e-21
0.96875 	-0.96875 	0.5 	39.899 	0.156504 	7.06116e-21
0.984375 	-0.96875 	0.5 	39.8919 	0.155316 	-4.3758e-21
1 	-0.96875 	0.5 	39.8852 	0.154776 	-1.3428e-20
1.01562 	-0.96875 	0.5 	39.8782 	0.151719 	8.32012e-21
1.03125 	-0.96875 	0.5 	39.8723 	0.148091 	1.14294e-21
1.04688 	-0.96875 	0.5 	39.8652 	0.146051 	5.26312e-22
1.0625 	-0.96875 	0.5 	39.8588 	0.142233 	3.46122e-21
1.07812 	-0.96875 	0.5 	39.8527 	0.137503 	8.55963e-21
1.09375 	-0.96875 	0.5 	39.847 	0.135073 	1.22876e-20
1.10938 	-0.96875 	0.5 	39.8415 	0.130899 	6.4262e-21
1.125 	-0.96875 	0.5 	39.8359 	0.126278 	6.18051e-21
1.14062 	-0.96875 	0.5 	39.8309 	0.12179 	1.94153e-20
1.15625 	-0.96875 	0.5 	39.8285 	0.117134 	8.70298e-21
1.17188 	-0.96875 	0.5 	39.8242 	0.112319 	7.70578e-21
1.1875 	-0.96875 	0.5 	39.82 	0.107301 	2.86676e-21
1.20312 	-0.96875 	0.5 	39.816 	0.102315 	1.81077e-20
1.21875 	-0.96875 	0.5 	39.8129 	0.0967399 	-1.66643e-20
1.23438 	-0.96875 	0.5 	39.8097 	0.0919389 	-5.69984e-20
1.25 	-0.96875 	0.5 	39.8067 	0.0872288 	-7.63408e-20
1.26562 	-0.96875 	0.5 	39.8043 	0.082774 	-3.68053e-20
1.28125 	-0.96875 	0.5 	39.8017 	0.077554 	-5.96129e-20
1.29688 	-0.96875 	0.5 	39.7996 	0.072265 	-3.20324e-20
1.3125 	-0.96875 	0.5 	39.7969 	0.0683946 	-8.94211e-21
1.32812 	-0.96875 	0.5 	39.7949 	0.0634005 	-1.06936e-20
1.34375 	-0.96875 	0.5 	39.7933 	0.0579552 	-3.75945e-20
1.35938 	-0.96875 	0.5 	39.7916 	0.0524317 	-2.62826e-20
1.375 	-0.96875 	0.5 	39.7904 	0.0481086 	5.72681e-20
1.39062 	-0.96875 	0.5 	39.7893 	0.0430179 	6.50274e-20
1.40625 	-0.96875 	0.5 	39.7882 	0.0366412 	-1.53645e-20
1.42188 	-0.96875 	0.5 	39.7878 	0.0314424 	-1.91652e-20
1.4375 	-0.96875 	0.5 	39.7877 	0.0263172 	-1.3668e-19
1.45312 	-0.96875 	0.5 	39.7877 	0.0217697 	-1.5455e-19
1.46875 	-0.96875 	0.5 	39.7876 	0.0174341 	-1.22185e-19
1.48438 	-0.96875 	0.5 	39.7876 	0.0134736 	-9.33397e-22
-0.5 	-0.953125 	0.5 	39.7747 	-0.0999003 	5.23426e-20
-0.484375 	-0.953125 	0.5 	39.7773 	-0.105113 	2.61975e-20
-0.46875 	-0.953125 	0.5 	39.7796 	-0.110658 	2.16907e-20
-0.453125 	-0.953125 	0.5 	39.7831 	-0.116152 	-3.79119e-21
-0.4375 	-0.953125 	0.5 	39.7865 	-0.121495 	5.22104e-20
-0.421875 	-0.953125 	0.5 	39.7897 	-0.126716 	1.9571e-20
-0.40625 	-0.953125 	0.5 	39.7938 	-0.131525 	5.53636e-20
-0.390625 	-0.953125 	0.5 	39.7978 	-0.135847 	1.18901e-20
-0.375 	-0.953125 	0.5 	39.8019 	-0.140498 	-1.78942e-20
-0.359375 	-0.953125 	0.5 	39.8065 	-0.14607 	-7.27245e-21
-0.34375 	-0.953125 	0.5 	39.8111 	-0.151374 	-4.59951e-21
-0.328125 	-0.953125 	0.5 	39.8163 	-0.156082 	-1.01637e-19
-0.3125 	-0.953125 	0.5 	39.8217 	-0.160585 	-6.55657e-20
-0.296875 	-0.953125 	0.5 	39.827 	-0.164963 	-4.47997e-21
-0.28125 	-0.953125 	0.5 	39.833 	-0.168988 	2.09105e-20
-0.265625 	-0.953125 	0.5 	39.839 	-0.17317 	4.37114e-20
-0.25 	-0.953125 	0.5 	39.8454 	-0.176983 	-7.56503e-21
-0.234375 	-0.953125 	0.5 	39.8526 	-0.18044 	-7.24104e-21
-0.21875 	-0.953125 	0.5 	39.8593 	-0.183821 	-2.78295e-21
-0.203125 	-0.953125 	0.5 	39.8664 	-0.186319 	-5.03336e-21
-0.1875 	-0.953125 	0.5 	39.8735 	-0.189053 	-5.92173e-21
-0.171875 	-0.953125 	0.5 	39.8809 	-0.191824 	4.57455e-21
-0.15625 	-0.953125 	0.5 	39.889 	-0.193716 	1.15381e-20
-0.140625 	-0.953125 	0.5 	39.8966 	-0.195486 	1.63634e-20
-0.125 	-0.953125 	0.5 	39.9049 	-0.197422 	-7.7339e-21
-0.109375 	-0.953125 	0.5 	39.9139 	-0.19921 	-1.1606e-21
-0.09375 	-0.953125 	0.5 	39.9219 	-0.199532 	-5.79584e-21
-0.078125 	-0.953125 	0.5 	39.9311 	-0.199003 	-5.50564e-22
-0.0625 	-0.953125 	0.5 	39.9393 	-0.199363 	-6.51297e-22
-0.046875 	-0.953125 	0.5 	39.9479 	-0.198897 	7.93494e-22
-0.03125 	-0.953125 	0.5 	39.9566 	-0.198299 	8.356e-22
-0.015625 	-0.953125 	0.5 	39.965 	-0.196773 	1.47367e-22
0 	-0.953125 	0.5 	39.9737 	-0.195015 	-3.38364e-22
0.015625 	-0.953125 	0.5 	39.9831 	-0.1928 	-4.63464e-22
0.03125 	-0.953125 	0.5 	39.9925 	-0.190554 	-5.63981e-22
0.046875 	-0.953125 	0.5 	40.0012 	-0.187762 	-1.93152e-21
0.0625 	-0.953125 	0.5 	40.0098 	-0.183418 	-8.05615e-21
0.078125 	-0.953125 	0.5 	40.0174 	-0.179303 	-2.94511e-21
0.09375 	-0.953125 	0.5 	40.0254 	-0.175139 	-1.97391e-20
0.109375 	-0.953125 	0.5 	40.0344 	-0.169559 	-1.47411e-20
0.125 	-0.953125 	0.5 	40.0425 	-0.16421 	-2.86563e-21
0.140625 	-0.953125 	0.5 	40.0501 	-0.158776 	4.12047e-21
0.15625 	-0.953125 	0.5 	40.0577 	-0.152279 	3.67037e-21
0.171875 	-0.953125 	0.5 	40.0644 	-0.14654 	-6.97164e-21
0.1875 	-0.953125 	0.5 	40.0708 	-0.138203 	-8.63856e-21
0.203125 	-0.953125 	0.5 	40.078 	-0.130924 	-4.01263e-21
0.21875 	-0.953125 	0.5 	40.0838 	-0.123661 	5.6324e-22
0.234375 	-0.953125 	0.5 	40.0896 	-0.114334 	-1.09671e-21
0.25 	-0.953125 	0.5 	40.0952 	-0.106291 	-5.93158e-22
0.265625 	-0.953125 	0.5 	40.0998 	-0.0982508 	7.84668e-21
0.28125 	-0.953125 	0.5 	40.1038 	-0.0897184 	2.10122e-20
0.296875 	-0.953125 	0.5 	40.1079 	-0.0802238 	8.19472e-21
0.3125 	-0.953125 	0.5 	40.1112 	-0.0710886 	2.45249e-20
0.328125 	-0.953125 	0.5 	40.1143 	-0.0600296 	8.55459e-21
0.34375 	-0.953125 	0.5 	40.1169 	-0.0503825 	2.03401e-21
0.359375 	-0.953125 	0.5 	40.1186 	-0.0405595 	-2.88204e-21
0.375 	-0.953125 	0.5 	40.1202 	-0.0307437 	-9.8841e-21
0.390625 	-0.953125 	0.5 	40.1196 	-0.0214397 	-2.27495e-21
0.40625 	-0.953125 	0.5 	40.1201 	-0.0110717 	-1.0929e-20
0.421875 	-0.953125 	0.5 	40.1194 	-0.000590353 	-3.53941e-21
0.4375 	-0.953125 	0.5 	40.1182 	0.00853125 	-8.89587e-21
0.453125 	-0.953125 	0.5 	40.1175 	0.02078 	2.82553e-20
0.46875 	-0.953125 	0.5 	40.1161 	0.0298233 	-3.10252e-21
0.484375 	-0.953125 	0.5 	40.1136 	0.0390948 	-4.12443e-21
0.5 	-0.953125 	0.5 	40.1107 	0.0494141 	-9.33205e-21
0.515625 	-0.953125 	0.5 	40.1079 	0.0585691 	1.88946e-20
0.53125 	-0.953125 	0.5 	40.104 	0.0665718 	4.33758e-21
0.546875 	-0.953125 	0.5 	40.0998 	0.0753673 	2.50315e-21
0.5625 	-0.953125 	0.5 	40.0951 	0.0853844 	7.27796e-21
0.578125 	-0.953125 	0.5 	40.0897 	0.0931414 	6.83692e-21
0.59375 	-0.953125 	0.5 	40.084 	0.100294 	7.30472e-21
0.609375 	-0.953125 	0.5 	40.0783 	0.107452 	7.85422e-21
0.625 	-0.953125 	0.5 	40.0721 	0.11468 	5.17044e-21
0.640625 	-0.953125 	0.5 	40.0656 	0.121863 	4.34214e-22
0.65625 	-0.953125 	0.5 	40.0592 	0.128958 	5.11479e-21
0.671875 	-0.953125 	0.5 	40.0507 	0.135335 	6.67666e-21
0.6875 	-0.953125 	0.5 	40.043 	0.140317 	4.15712e-21
0.703125 	-0.953125 	0.5 	40.0352 	0.146489 	-1.04798e-22
0.71875 	-0.953125 	0.5 	40.0271 	0.150299 	-4.32277e-21
0.734375 	-0.953125 	0.5 	40.0181 	0.154013 	7.49758e-22
0.75 	-0.953125 	0.5 	40.0102 	0.158662 	6.10378e-21
0.765625 	-0.953125 	0.5 	40.0022 	0.162576 	2.45237e-22
0.78125 	-0.953125 	0.5 	39.9948 	0.164295 	5.3014e-22
0.796875 	-0.953125 	0.5 	39.9864 	0.167139 	3.74518e-21
0.8125 	-0.953125 	0.5 	39.9779 	0.169589 	3.83698e-21
0.828125 	-0.953125 	0.5 	39.9691 	0.171186 	-3.06725e-21
0.84375 	-0.953125 	0.5 	39.9605 	0.172262 	-6.13761e-21
0.859375 	-0.953125 	0.5 	39.9525 	0.172231 	-8.56917e-21
0.875 	-0.953125 	0.5 	39.9442 	0.173059 	6.43834e-21
0.890625 	-0.953125 	0.5 	39.9362 	0.172759 	2.3282e-20
0.90625 	-0.953125 	0.5 	39.928 	0.17244 	5.27439e-21
0.921875 	-0.953125 	0.5 	39.9202 	0.171526 	2.03149e-21
0.9375 	-0.953125 	0.5 	39.9131 	0.170729 	1.01463e-22
0.953125 	-0.953125 	0.5 	39.9039 	0.166831 	6.26383e-21
0.96875 	-0.953125 	0.5 	39.8988 	0.164321 	4.13037e-20
0.984375 	-0.953125 	0.5 	39.891 	0.162316 	2.75209e-20
1 	-0.953125 	0.5 	39.8829 	0.16038 	7.11315e-21
1.01562 	-0.953125 	0.5 	39.8752 	0.157485 	-8.40233e-21
1.03125 	-0.953125 	0.5 	39.8684 	0.154112 	3.90187e-20
1.04688 	-0.953125 	0.5 	39.8618 	0.150651 	2.90229e-20
1.0625 	-0.953125 	0.5 	39.8553 	0.147189 	1.90272e-20
1.07812 	-0.953125 	0.5 	39.8486 	0.144054 	1.83024e-20
1.09375 	-0.953125 	0.5 	39.8427 	0.140088 	1.82884e-20
1.10938 	-0.953125 	0.5 	39.837 	0.135473 	1.87084e-20
1.125 	-0.953125 	0.5 	39.8313 	0.130857 	1.91285e-20
1.14062 	-0.953125 	0.5 	39.8257 	0.126339 	3.06786e-20
1.15625 	-0.953125 	0.5 	39.8225 	0.121631 	2.44584e-20
1.17188 	-0.953125 	0.5 	39.8185 	0.116396 	1.5499e-20
1.1875 	-0.953125 	0.5 	39.8148 	0.110737 	-1.48504e-21
1.20312 	-0.953125 	0.5 	39.8102 	0.105926 	1.30673e-20
1.21875 	-0.953125 	0.5 	39.8071 	0.102399 	1.2521e-19
1.23438 	-0.953125 	0.5 	39.804 	0.0957711 	1.81503e-20
1.25 	-0.953125 	0.5 	39.8009 	0.0902264 	-4.93351e-20
1.26562 	-0.953125 	0.5 	39.7984 	0.0853475 	-4.59596e-20
1.28125 	-0.953125 	0.5 	39.7959 	0.0799946 	-5.90499e-20
1.29688 	-0.953125 	0.5 	39.7936 	0.0745445 	-4.7677e-20
1.3125 	-0.953125 	0.5 	39.7912 	0.0699771 	-2.13951e-20
1.32812 	-0.953125 	0.5 	39.7894 	0.0647407 	-3.64814e-20
1.34375 	-0.953125 	0.5 	39.7881 	0.0589613 	-1.04566e-19
1.35938 	-0.953125 	0.5 	39.7863 	0.0535335 	-6.35816e-20
1.375 	-0.953125 	0.5 	39.7847 	0.0487873 	3.03147e-20
1.39062 	-0.953125 	0.5 	39.7836 	0.0434661 	2.22777e-20
1.40625 	-0.953125 	0.5 	39.7829 	0.0385031 	-3.22968e-20
1.42188 	-0.953125 	0.5 	39.7826 	0.0331364 	-2.9835e-20
1.4375 	-0.953125 	0.5 	39.7824 	0.0273065 	-6.09718e-20
1.45312 	-0.953125 	0.5 	39.7823 	0.0226486 	-1.05021e-19
1.46875 	-0.953125 	0.5 	39.7823 	0.018623 	1.59338e-20
1.48438 	-0.953125 	0.5 	39.7824 	0.0135887 	6.10316e-20
-0.5 	-0.9375 	0.5 	39.7692 	-0.10234 	5.26831e-20
-0.484375 	-0.9375 	0.5 	39.7715 	-0.10765 	1.01714e-19
-0.46875 	-0.9375 	0.5 	39.7737 	-0.113529 	2.09172e-20
-0.453125 	-0.9375 	0.5 	39.7776 	-0.118534 	-9.07911e-20
-0.4375 	-0.9375 	0.5 	39.7807 	-0.124445 	-3.66508e-20
-0.421875 	-0.9375 	0.5 	39.7839 	-0.130396 	1.717e-20
-0.40625 	-0.9375 	0.5 	39.7879 	-0.135539 	-3.86071e-20
-0.390625 	-0.9375 	0.5 	39.7919 	-0.140649 	-8.72571e-20
-0.375 	-0.9375 	0.5 	39.796 	-0.145427 	-1.29134e-20
-0.359375 	-0.9375 	0.5 	39.801 	-0.151025 	-1.46926e-20
-0.34375 	-0.9375 	0.5 	39.8058 	-0.156394 	-9.56642e-21
-0.328125 	-0.9375 	0.5 	39.811 	-0.161047 	-2.22996e-20
-0.3125 	-0.9375 	0.5 	39.8164 	-0.165985 	5.48278e-21
-0.296875 	-0.9375 	0.5 	39.822 	-0.170952 	-1.73796e-20
-0.28125 	-0.9375 	0.5 	39.8283 	-0.175539 	-7.35297e-21
-0.265625 	-0.9375 	0.5 	39.8343 	-0.179865 	3.4291e-20
-0.25 	-0.9375 	0.5 	39.841 	-0.183596 	-5.78624e-21
-0.234375 	-0.9375 	0.5 	39.8482 	-0.187041 	-2.15523e-21
-0.21875 	-0.9375 	0.5 	39.8555 	-0.190896 	-1.03199e-20
-0.203125 	-0.9375 	0.5 	39.8632 	-0.194291 	-1.66835e-20
-0.1875 	-0.9375 	0.5 	39.8704 	-0.197351 	-2.21621e-20
-0.171875 	-0.9375 	0.5 	39.878 	-0.199633 	9.53231e-21
-0.15625 	-0.9375 	0.5 	39.8867 	-0.201904 	1.41079e-20
-0.140625 	-0.9375 	0.5 	39.8948 	-0.203973 	1.26447e-20
-0.125 	-0.9375 	0.5 	39.9033 	-0.205521 	-8.31068e-21
-0.109375 	-0.9375 	0.5 	39.9122 	-0.207166 	-8.81842e-21
-0.09375 	-0.9375 	0.5 	39.9211 	-0.208583 	-4.60122e-21
-0.078125 	-0.9375 	0.5 	39.9304 	-0.208019 	-2.51838e-21
-0.0625 	-0.9375 	0.5 	39.9392 	-0.208138 	-1.4666e-21
-0.046875 	-0.9375 	0.5 	39.9476 	-0.209073 	4.97354e-21
-0.03125 	-0.9375 	0.5 	39.9575 	-0.207865 	8.94326e-22