-0.5 	-1 	0.5 	39.8998 	-0.0544731 	-5.29287e-19
-0.484375 	-1 	0.5 	39.9028 	-0.0564039 	-1.32965e-18
-0.46875 	-1 	0.5 	39.9051 	-0.0584175 	-6.92629e-20
-0.453125 	-1 	0.5 	39.9071 	-0.0605928 	2.35295e-20
-0.4375 	-1 	0.5 	39.9091 	-0.0625968 	1.31817e-20
-0.421875 	-1 	0.5 	39.9111 	-0.0646007 	2.83386e-21
-0.40625 	-1 	0.5 	39.9135 	-0.0666591 	-4.93443e-22
-0.390625 	-1 	0.5 	39.916 	-0.0687324 	-1.40552e-21
-0.375 	-1 	0.5 	39.9187 	-0.0707736 	4.75735e-20
-0.359375 	-1 	0.5 	39.9217 	-0.0723525 	4.48421e-19
-0.34375 	-1 	0.5 	39.9252 	-0.0740583 	-8.48387e-20
-0.328125 	-1 	0.5 	39.9282 	-0.0758474 	-7.09247e-19
-0.3125 	-1 	0.5 	39.9313 	-0.0768849 	-1.15325e-19
-0.296875 	-1 	0.5 	39.9346 	-0.0776822 	-3.67017e-20
-0.28125 	-1 	0.5 	39.938 	-0.079373 	-5.54091e-21
-0.265625 	-1 	0.5 	39.9415 	-0.0804333 	1.82592e-20
-0.25 	-1 	0.5 	39.9448 	-0.0809997 	2.0825e-20
-0.234375 	-1 	0.5 	39.9487 	-0.0814862 	-3.82169e-20
-0.21875 	-1 	0.5 	39.9529 	-0.0823068 	5.75227e-20
-0.203125 	-1 	0.5 	39.9569 	-0.0829504 	1.09455e-19
-0.1875 	-1 	0.5 	39.9607 	-0.0830057 	1.6687e-19
-0.171875 	-1 	0.5 	39.9646 	-0.0830997 	-3.09376e-20
-0.15625 	-1 	0.5 	39.9686 	-0.0832514 	-8.55758e-20
-0.140625 	-1 	0.5 	39.9729 	-0.0828737 	6.94409e-19
-0.125 	-1 	0.5 	39.977 	-0.0824966 	1.57587e-18
-0.109375 	-1 	0.5 	39.9811 	-0.0806855 	-7.45291e-19
-0.09375 	-1 	0.5 	39.9852 	-0.0794264 	-9.20681e-19
-0.078125 	-1 	0.5 	39.9893 	-0.0783649 	-1.57188e-19
-0.0625 	-1 	0.5 	39.9933 	-0.0768635 	-1.00005e-19
-0.046875 	-1 	0.5 	39.9974 	-0.0750497 	-1.63256e-19
-0.03125 	-1 	0.5 	40.0015 	-0.07327 	-2.48594e-19
-0.015625 	-1 	0.5 	40.0055 	-0.0711081 	-2.91711e-19
0 	-1 	0.5 	40.0094 	-0.0687136 	-2.16189e-19
0.015625 	-1 	0.5 	40.0133 	-0.0662496 	-2.00128e-19
0.03125 	-1 	0.5 	40.0172 	-0.0633242 	-3.17747e-19
0.046875 	-1 	0.5 	40.0211 	-0.0603161 	-1.06634e-19
0.0625 	-1 	0.5 	40.0242 	-0.0568658 	1.59803e-20
0.078125 	-1 	0.5 	40.0275 	-0.0535531 	6.71893e-20
0.09375 	-1 	0.5 	40.03 	-0.0500575 	-4.50226e-20
0.109375 	-1 	0.5 	40.0325 	-0.0462196 	-1.41296e-19
0.125 	-1 	0.5 	40.036 	-0.0423091 	-2.4638e-19
0.140625 	-1 	0.5 	40.0391 	-0.0383701 	5.6713e-20
0.15625 	-1 	0.5 	40.0411 	-0.0336667 	-9.69435e-20
0.171875 	-1 	0.5 	40.0431 	-0.0291325 	-8.49001e-20
0.1875 	-1 	0.5 	40.0452 	-0.0242998 	-2.41736e-20
0.203125 	-1 	0.5 	40.0467 	-0.0200192 	-5.96474e-20
0.21875 	-1 	0.5 	40.0484 	-0.0149792 	-1.74984e-19
0.234375 	-1 	0.5 	40.0497 	-0.0100485 	-6.79034e-19
0.25 	-1 	0.5 	40.051 	-0.00512268 	-1.31799e-18
0.265625 	-1 	0.5 	40.0511 	-0.000264646 	5.62543e-19
0.28125 	-1 	0.5 	40.0512 	0.00522422 	-1.14969e-19
0.296875 	-1 	0.5 	40.0516 	0.0100197 	4.54307e-19
0.3125 	-1 	0.5 	40.0514 	0.0150675 	1.15928e-19
0.328125 	-1 	0.5 	40.0511 	0.0203858 	9.62821e-20
0.34375 	-1 	0.5 	40.0501 	0.0253957 	7.72993e-20
0.359375 	-1 	0.5 	40.0494 	0.0314283 	-2.02843e-21
0.375 	-1 	0.5 	40.0482 	0.0359497 	-1.12906e-20
0.390625 	-1 	0.5 	40.0469 	0.0408242 	-2.21876e-19
0.40625 	-1 	0.5 	40.0454 	0.0457394 	-1.09644e-18
0.421875 	-1 	0.5 	40.0427 	0.050313 	-3.88092e-19
0.4375 	-1 	0.5 	40.0401 	0.0547459 	7.62413e-20
0.453125 	-1 	0.5 	40.0375 	0.0591099 	6.52036e-20
0.46875 	-1 	0.5 	40.0349 	0.0634907 	5.71943e-20
0.484375 	-1 	0.5 	40.0325 	0.0672638 	1.93762e-21
0.5 	-1 	0.5 	40.0293 	0.0714431 	-6.6368e-19
0.515625 	-1 	0.5 	40.026 	0.0753252 	-4.50847e-19
0.53125 	-1 	0.5 	40.0218 	0.079372 	-3.85955e-19
0.546875 	-1 	0.5 	40.0181 	0.0827957 	4.83597e-20
0.5625 	-1 	0.5 	40.0147 	0.0864438 	4.20683e-19
0.578125 	-1 	0.5 	40.0106 	0.0896061 	7.41774e-20
0.59375 	-1 	0.5 	40.0066 	0.0920313 	5.25031e-20
0.609375 	-1 	0.5 	40.002 	0.0941089 	-1.57611e-20
0.625 	-1 	0.5 	39.9982 	0.0961654 	-5.93727e-19
0.640625 	-1 	0.5 	39.9937 	0.098486 	1.67134e-19
0.65625 	-1 	0.5 	39.9885 	0.100264 	6.31826e-20
0.671875 	-1 	0.5 	39.9834 	0.102003 	-2.81713e-20
0.6875 	-1 	0.5 	39.979 	0.102883 	2.94959e-19
0.703125 	-1 	0.5 	39.9743 	0.103899 	2.46627e-19
0.71875 	-1 	0.5 	39.9697 	0.105072 	-1.31167e-19
0.734375 	-1 	0.5 	39.965 	0.106064 	-7.68791e-20
0.75 	-1 	0.5 	39.9603 	0.1066 	4.28991e-20
0.765625 	-1 	0.5 	39.9552 	0.106679 	4.35484e-19
0.78125 	-1 	0.5 	39.9505 	0.106999 	-1.98354e-19
0.796875 	-1 	0.5 	39.9461 	0.106123 	2.16566e-19
0.8125 	-1 	0.5 	39.9416 	0.105703 	3.43165e-19
0.828125 	-1 	0.5 	39.9367 	0.104898 	6.07071e-20
0.84375 	-1 	0.5 	39.9323 	0.104218 	-4.29447e-19
0.859375 	-1 	0.5 	39.928 	0.102835 	1.73023e-19
0.875 	-1 	0.5 	39.9235 	0.101719 	-3.93404e-20
0.890625 	-1 	0.5 	39.9196 	0.100639 	-1.62737e-19
0.90625 	-1 	0.5 	39.9155 	0.0986902 	-8.61648e-19
0.921875 	-1 	0.5 	39.9121 	0.0966612 	-7.1992e-20
0.9375 	-1 	0.5 	39.908 	0.0944839 	7.70598e-20
0.953125 	-1 	0.5 	39.9036 	0.0922529 	-9.21557e-20
0.96875 	-1 	0.5 	39.8998 	0.0902007 	2.22395e-19
0.984375 	-1 	0.5 	39.8972 	0.0875139 	4.11649e-19
1 	-1 	0.5 	39.8946 	0.0850227 	3.40116e-19
1.01562 	-1 	0.5 	39.8917 	0.0826854 	-1.95766e-19
1.03125 	-1 	0.5 	39.8887 	0.0802594 	-1.01225e-19
1.04688 	-1 	0.5 	39.8855 	0.0773169 	-2.36202e-19
1.0625 	-1 	0.5 	39.8819 	0.0728958 	-1.26598e-18
1.07812 	-1 	0.5 	39.8806 	0.0708929 	-2.21638e-19
1.09375 	-1 	0.5 	39.8781 	0.0677161 	-1.93773e-20
1.10938 	-1 	0.5 	39.8761 	0.064645 	-5.98934e-20
1.125 	-1 	0.5 	39.8739 	0.0618633 	-1.14754e-18
1.14062 	-1 	0.5 	39.8719 	0.0587658 	-2.62466e-19
1.15625 	-1 	0.5 	39.87 	0.0554644 	-4.71028e-20
1.17188 	-1 	0.5 	39.8689 	0.051694 	-4.85194e-20
1.1875 	-1 	0.5 	39.8674 	0.0481778 	-8.07131e-19
1.20312 	-1 	0.5 	39.8662 	0.0454769 	5.99232e-19
1.21875 	-1 	0.5 	39.8648 	0.0420901 	-9.06804e-20
1.23438 	-1 	0.5 	39.8639 	0.038778 	-2.54621e-19
1.25 	-1 	0.5 	39.8628 	0.0357726 	-4.95192e-19
1.26562 	-1 	0.5 	39.8619 	0.032847 	-5.07444e-19
1.28125 	-1 	0.5 	39.8622 	0.029045 	-1.54949e-18
1.29688 	-1 	0.5 	39.8623 	0.0254511 	-1.89923e-18
1.3125 	-1 	0.5 	39.8611 	0.0226862 	-4.02988e-19
1.32812 	-1 	0.5 	39.8606 	0.0198669 	1.22755e-19
1.34375 	-1 	0.5 	39.8603 	0.0168528 	-2.68207e-19
1.35938 	-1 	0.5 	39.8604 	0.0141054 	-1.61153e-19
1.375 	-1 	0.5 	39.8606 	0.0112019 	-1.14318e-19
1.39062 	-1 	0.5 	39.8609 	0.0077541 	-3.74525e-19
1.40625 	-1 	0.5 	39.8613 	0.00451639 	-1.96046e-18
1.42188 	-1 	0.5 	39.8616 	0.00240488 	-9.51688e-19
1.4375 	-1 	0.5 	39.8619 	-1.95354e-05 	-2.19344e-19
1.45312 	-1 	0.5 	39.8624 	-0.00293824 	-2.03548e-19
1.46875 	-1 	0.5 	39.8634 	-0.00560792 	-1.32627e-19
1.48438 	-1 	0.5 	39.864 	-0.0081884 	2.23918e-19
-0.5 	-0.984375 	0.5 	39.8973 	-0.0562855 	-3.10053e-20
-0.484375 	-0.984375 	0.5 	39.8996 	-0.0584909 	-1.87759e-19
-0.46875 	-0.984375 	0.5 	39.9016 	-0.0616905 	-4.44936e-19
-0.453125 	-0.984375 	0.5 	39.9041 	-0.0631201 	-1.48032e-20
-0.4375 	-0.984375 	0.5 	39.9058 	-0.0652724 	-1.60131e-20
-0.421875 	-0.984375 	0.5 	39.9084 	-0.0671708 	-1.56385e-20
-0.40625 	-0.984375 	0.5 	39.9112 	-0.069657 	1.07478e-19
-0.390625 	-0.984375 	0.5 	39.9136 	-0.0717478 	7.96257e-20
-0.375 	-0.984375 	0.5 	39.9166 	-0.0733107 	5.28907e-20
-0.359375 	-0.984375 	0.5 	39.9196 	-0.0755209 	1.30569e-19
-0.34375 	-0.984375 	0.5 	39.9226 	-0.0766449 	1.06345e-18
-0.328125 	-0.984375 	0.5 	39.9262 	-0.0784754 	2.51111e-19
-0.3125 	-0.984375 	0.5 	39.9299 	-0.0802189 	-1.41754e-19
-0.296875 	-0.984375 	0.5 	39.9331 	-0.0816789 	-2.22643e-19
-0.28125 	-0.984375 	0.5 	39.9365 	-0.083112 	-1.61447e-19
-0.265625 	-0.984375 	0.5 	39.9403 	-0.0843706 	2.48622e-20
-0.25 	-0.984375 	0.5 	39.9441 	-0.0852704 	1.35302e-19
-0.234375 	-0.984375 	0.5 	39.9479 	-0.0853507 	-1.17012e-19
-0.21875 	-0.984375 	0.5 	39.952 	-0.0861299 	6.61894e-21
-0.203125 	-0.984375 	0.5 	39.9562 	-0.0870238 	1.22437e-19
-0.1875 	-0.984375 	0.5 	39.9604 	-0.0871543 	-9.56166e-20
-0.171875 	-0.984375 	0.5 	39.9642 	-0.0874838 	-5.82099e-19
-0.15625 	-0.984375 	0.5 	39.9685 	-0.0873148 	-1.92088e-19
-0.140625 	-0.984375 	0.5 	39.9728 	-0.0865785 	-6.01321e-19
-0.125 	-0.984375 	0.5 	39.9773 	-0.0861257 	7.49819e-19
-0.109375 	-0.984375 	0.5 	39.9814 	-0.0846561 	-4.77129e-19
-0.09375 	-0.984375 	0.5 	39.9859 	-0.083657 	4.11666e-19
-0.078125 	-0.984375 	0.5 	39.9902 	-0.0828429 	1.81994e-19
-0.0625 	-0.984375 	0.5 	39.9951 	-0.0814599 	3.3733e-20
-0.046875 	-0.984375 	0.5 	39.9993 	-0.0800203 	-4.77978e-20
-0.03125 	-0.984375 	0.5 	40.0034 	-0.0780078 	-2.89311e-20
-0.015625 	-0.984375 	0.5 	40.0078 	-0.0754315 	3.35653e-20
0 	-0.984375 	0.5 	40.0117 	-0.0729426 	-3.8013e-19
0.015625 	-0.984375 	0.5 	40.0158 	-0.0700914 	-2.37166e-19
0.03125 	-0.984375 	0.5 	40.0197 	-0.0675594 	2.61976e-19
0.046875 	-0.984375 	0.5 	40.0235 	-0.064084 	6.68201e-20
0.0625 	-0.984375 	0.5 	40.0272 	-0.0616074 	2.01184e-21
0.078125 	-0.984375 	0.5 	40.0307 	-0.0573877 	4.5098e-20
0.09375 	-0.984375 	0.5 	40.0341 	-0.0531404 	4.24661e-20
0.109375 	-0.984375 	0.5 	40.0369 	-0.0496677 	7.45817e-20
0.125 	-0.984375 	0.5 	40.0405 	-0.0453734 	-3.58887e-19
0.140625 	-0.984375 	0.5 	40.0434 	-0.0406454 	6.12923e-19
0.15625 	-0.984375 	0.5 	40.0454 	-0.0362614 	-4.11554e-20
0.171875 	-0.984375 	0.5 	40.0475 	-0.0317163 	9.2821e-21
0.1875 	-0.984375 	0.5 	40.0494 	-0.0262455 	-3.36164e-20
0.203125 	-0.984375 	0.5 	40.0511 	-0.0220085 	-5.62659e-20
0.21875 	-0.984375 	0.5 	40.0528 	-0.0164789 	-1.00082e-19
0.234375 	-0.984375 	0.5 	40.0539 	-0.0113647 	-2.14128e-19
0.25 	-0.984375 	0.5 	40.0546 	-0.00658232 	-1.25674e-19
0.265625 	-0.984375 	0.5 	40.056 	-0.00111541 	9.15319e-19
0.28125 	-0.984375 	0.5 	40.0563 	0.00440264 	-8.17311e-20
0.296875 	-0.984375 	0.5 	40.0568 	0.00996338 	1.81073e-19
0.3125 	-0.984375 	0.5 	40.0565 	0.0158286 	1.21674e-19
0.328125 	-0.984375 	0.5 	40.0555 	0.0214441 	1.81921e-20
0.34375 	-0.984375 	0.5 	40.0553 	0.0267373 	1.77673e-20
0.359375 	-0.984375 	0.5 	40.0544 	0.0322218 	3.53904e-22
0.375 	-0.984375 	0.5 	40.0531 	0.0373205 	-3.24856e-20
0.390625 	-0.984375 	0.5 	40.0518 	0.0420678 	-1.09487e-19
0.40625 	-0.984375 	0.5 	40.0496 	0.0467962 	-4.11934e-20
0.421875 	-0.984375 	0.5 	40.0473 	0.0516805 	8.99816e-19
0.4375 	-0.984375 	0.5 	40.0446 	0.0577997 	1.11553e-19
0.453125 	-0.984375 	0.5 	40.0417 	0.0623042 	1.63077e-19
0.46875 	-0.984375 	0.5 	40.039 	0.0669024 	3.11743e-19
0.484375 	-0.984375 	0.5 	40.0367 	0.0703699 	1.73872e-19
0.5 	-0.984375 	0.5 	40.0333 	0.0743847 	4.4969e-20
0.515625 	-0.984375 	0.5 	40.0295 	0.0788927 	-4.94011e-19
0.53125 	-0.984375 	0.5 	40.0255 	0.0826616 	-1.36498e-19
0.546875 	-0.984375 	0.5 	40.0216 	0.086477 	1.12396e-19
0.5625 	-0.984375 	0.5 	40.0175 	0.0902108 	2.48071e-19
0.578125 	-0.984375 	0.5 	40.0134 	0.0938358 	2.8263e-19
0.59375 	-0.984375 	0.5 	40.0092 	0.0960692 	5.13394e-20
0.609375 	-0.984375 	0.5 	40.0046 	0.0985675 	-7.05897e-20
0.625 	-0.984375 	0.5 	40.0001 	0.101156 	-1.11975e-19
0.640625 	-0.984375 	0.5 	39.9951 	0.103255 	4.06095e-20
0.65625 	-0.984375 	0.5 	39.9905 	0.104735 	2.25478e-20
0.671875 	-0.984375 	0.5 	39.9851 	0.106409 	5.58981e-20
0.6875 	-0.984375 	0.5 	39.9799 	0.108276 	6.28262e-20
0.703125 	-0.984375 	0.5 	39.9753 	0.109833 	3.32485e-19
0.71875 	-0.984375 	0.5 	39.9704 	0.110271 	-1.48922e-19
0.734375 	-0.984375 	0.5 	39.9651 	0.110855 	2.09441e-20
0.75 	-0.984375 	0.5 	39.9603 	0.111401 	4.36534e-19
0.765625 	-0.984375 	0.5 	39.9552 	0.111834 	-2.04241e-19
0.78125 	-0.984375 	0.5 	39.9502 	0.111847 	-2.49025e-19
0.796875 	-0.984375 	0.5 	39.9451 	0.111528 	-2.80826e-20
0.8125 	-0.984375 	0.5 	39.9405 	0.110997 	1.49977e-19
0.828125 	-0.984375 	0.5 	39.9358 	0.109294 	5.22211e-19
0.84375 	-0.984375 	0.5 	39.9312 	0.10831 	-2.79428e-19
0.859375 	-0.984375 	0.5 	39.9269 	0.10707 	2.8135e-19
0.875 	-0.984375 	0.5 	39.9224 	0.106014 	7.89597e-20
0.890625 	-0.984375 	0.5 	39.9179 	0.104903 	-2.98002e-19
0.90625 	-0.984375 	0.5 	39.9141 	0.103003 	-1.98877e-19
0.921875 	-0.984375 	0.5 	39.9097 	0.100825 	-3.02704e-20
0.9375 	-0.984375 	0.5 	39.9056 	0.0976333 	4.47157e-19
0.953125 	-0.984375 	0.5 	39.9011 	0.0958932 	2.98969e-19
0.96875 	-0.984375 	0.5 	39.8971 	0.0935916 	-4.54308e-20
0.984375 	-0.984375 	0.5 	39.8945 	0.0910253 	1.60761e-18
1 	-0.984375 	0.5 	39.8919 	0.0885511 	1.78313e-18
1.01562 	-0.984375 	0.5 	39.8887 	0.0856027 	-8.54757e-20
1.03125 	-0.984375 	0.5 	39.8856 	0.082512 	-3.89599e-21
1.04688 	-0.984375 	0.5 	39.8821 	0.0797408 	-1.00546e-19
1.0625 	-0.984375 	0.5 	39.8795 	0.0760933 	-4.34057e-19
1.07812 	-0.984375 	0.5 	39.8768 	0.0731072 	8.60096e-19
1.09375 	-0.984375 	0.5 	39.8745 	0.069781 	1.71069e-19
1.10938 	-0.984375 	0.5 	39.8728 	0.0671746 	4.78065e-19
1.125 	-0.984375 	0.5 	39.8704 	0.0635881 	-8.04974e-20
1.14062 	-0.984375 	0.5 	39.8684 	0.0604888 	3.17547e-19
1.15625 	-0.984375 	0.5 	39.8672 	0.0568028 	1.24082e-19
1.17188 	-0.984375 	0.5 	39.8658 	0.0532852 	6.79652e-20
1.1875 	-0.984375 	0.5 	39.8643 	0.0499408 	6.82069e-19
1.20312 	-0.984375 	0.5 	39.8625 	0.0466619 	1.2134e-18
1.21875 	-0.984375 	0.5 	39.8613 	0.0432424 	-9.72878e-20
1.23438 	-0.984375 	0.5 	39.8604 	0.0398386 	-2.80451e-19
1.25 	-0.984375 	0.5 	39.8592 	0.0368551 	-3.75452e-19
1.26562 	-0.984375 	0.5 	39.8582 	0.033491 	-4.5803e-19
1.28125 	-0.984375 	0.5 	39.858 	0.0297932 	-3.80727e-19
1.29688 	-0.984375 	0.5 	39.8577 	0.0264697 	-3.15644e-19
1.3125 	-0.984375 	0.5 	39.8575 	0.0231463 	-2.50562e-19
1.32812 	-0.984375 	0.5 	39.8572 	0.0199496 	-1.90782e-19
1.34375 	-0.984375 	0.5 	39.8574 	0.0169681 	-1.75402e-19
1.35938 	-0.984375 	0.5 	39.8575 	0.0140318 	-1.43012e-19
1.375 	-0.984375 	0.5 	39.8577 	0.0110955 	-1.10622e-19
1.39062 	-0.984375 	0.5 	39.8579 	0.00807599 	-1.14975e-19
1.40625 	-0.984375 	0.5 	39.8582 	0.00521041 	-2.55225e-19
1.42188 	-0.984375 	0.5 	39.8585 	0.00224486 	-1.10188e-19
1.4375 	-0.984375 	0.5 	39.8588 	-0.00079081 	-6.05331e-20
1.45312 	-0.984375 	0.5 	39.8595 	-0.00362023 	-6.95697e-20
1.46875 	-0.984375 	0.5 	39.8605 	-0.00630829 	-1.11005e-19
1.48438 	-0.984375 	0.5 	39.8614 	-0.00899294 	-6.0576e-20
-0.5 	-0.96875 	0.5 	39.8944 	-0.05795 	-1.86801e-19
-0.484375 	-0.96875 	0.5 	39.8965 	-0.0608432 	-1.50774e-19
-0.46875 	-0.96875 	0.5 	39.8987 	-0.0636793 	-3.49271e-19
-0.453125 	-0.96875 	0.5 	39.9014 	-0.0655867 	-1.11512e-19
-0.4375 	-0.96875 	0.5 	39.9035 	-0.0675276 	-7.11039e-20
-0.421875 	-0.96875 	0.5 	39.9059 	-0.0698918 	1.07131e-21
-0.40625 	-0.96875 	0.5 	39.9087 	-0.0723871 	1.28534e-19
-0.390625 	-0.96875 	0.5 	39.9115 	-0.0747236 	2.21989e-19
-0.375 	-0.96875 	0.5 	39.9145 	-0.076307 	1.57623e-19
-0.359375 	-0.96875 	0.5 	39.9174 	-0.0781788 	1.58572e-19
-0.34375 	-0.96875 	0.5 	39.9207 	-0.0801073 	2.59074e-19
-0.328125 	-0.96875 	0.5 	39.9243 	-0.0820246 	-3.85935e-19
-0.3125 	-0.96875 	0.5 	39.9278 	-0.083837 	1.39393e-21
-0.296875 	-0.96875 	0.5 	39.9316 	-0.0851986 	-4.53098e-20
-0.28125 	-0.96875 	0.5 	39.9349 	-0.0866507 	-5.46755e-20
-0.265625 	-0.96875 	0.5 	39.9386 	-0.0881755 	3.36742e-19
-0.25 	-0.96875 	0.5 	39.9428 	-0.0891322 	2.83709e-20
-0.234375 	-0.96875 	0.5 	39.9469 	-0.0898774 	-1.23727e-20
-0.21875 	-0.96875 	0.5 	39.9516 	-0.0908174 	1.39069e-20
-0.203125 	-0.96875 	0.5 	39.9554 	-0.0914054 	2.12832e-19
-0.1875 	-0.96875 	0.5 	39.9601 	-0.091435 	5.11128e-19
-0.171875 	-0.96875 	0.5 	39.9643 	-0.0914808 	-1.92766e-19
-0.15625 	-0.96875 	0.5 	39.9684 	-0.0913095 	-5.17053e-19
-0.140625 	-0.96875 	0.5 	39.9729 	-0.0905625 	-1.84522e-19
-0.125 	-0.96875 	0.5 	39.9775 	-0.0901535 	6.01785e-20
-0.109375 	-0.96875 	0.5 	39.9824 	-0.0892611 	1.74867e-19
-0.09375 	-0.96875 	0.5 	39.9872 	-0.0882598 	8.42807e-19
-0.078125 	-0.96875 	0.5 	39.9914 	-0.0873192 	4.35052e-20
-0.0625 	-0.96875 	0.5 	39.9964 	-0.0857998 	3.29426e-20
-0.046875 	-0.96875 	0.5 	40.0012 	-0.084603 	7.7192e-20
-0.03125 	-0.96875 	0.5 	40.0055 	-0.0824437 	1.56321e-19
-0.015625 	-0.96875 	0.5 	40.0099 	-0.0801385 	5.09573e-20
0 	-0.96875 	0.5 	40.0143 	-0.0773691 	-1.94289e-19
0.015625 	-0.96875 	0.5 	40.0184 	-0.0742815 	-4.53557e-20
0.03125 	-0.96875 	0.5 	40.0225 	-0.0713892 	1.04422e-19
0.046875 	-0.96875 	0.5 	40.026 	-0.0678966 	1.58351e-19
0.0625 	-0.96875 	0.5 	40.0305 	-0.064215 	1.03135e-19
0.078125 	-0.96875 	0.5 	40.0339 	-0.0604516 	7.19953e-20
0.09375 	-0.96875 	0.5 	40.0371 	-0.0563083 	3.02176e-20
0.109375 	-0.96875 	0.5 	40.0407 	-0.0524291 	2.19223e-20
0.125 	-0.96875 	0.5 	40.0439 	-0.0482111 	6.15659e-20
0.140625 	-0.96875 	0.5 	40.0467 	-0.043521 	8.25942e-20
0.15625 	-0.96875 	0.5 	40.0496 	-0.0388308 	1.03622e-19
0.171875 	-0.96875 	0.5 	40.0517 	-0.0337793 	-1.99665e-20
0.1875 	-0.96875 	0.5 	40.0537 	-0.0284147 	-8.08013e-20
0.203125 	-0.96875 	0.5 	40.0556 	-0.02308 	-1.33118e-19
0.21875 	-0.96875 	0.5 	40.0569 	-0.0179403 	-1.11355e-19
0.234375 	-0.96875 	0.5 	40.0581 	-0.0128003 	-8.90735e-20
0.25 	-0.96875 	0.5 	40.0596 	-0.0075496 	-5.32149e-20
0.265625 	-0.96875 	0.5 	40.0612 	-0.0021174 	3.26944e-20
0.28125 	-0.96875 	0.5 	40.062 	0.00423326 	1.6736e-21
0.296875 	-0.96875 	0.5 	40.062 	0.0103198 	1.67142e-19
0.3125 	-0.96875 	0.5 	40.0617 	0.0174851 	-9.55433e-21
0.328125 	-0.96875 	0.5 	40.0612 	0.0221104 	-9.24966e-21
0.34375 	-0.96875 	0.5 	40.0605 	0.0276313 	-5.57426e-21
0.359375 	-0.96875 	0.5 	40.0595 	0.032852 	-1.17193e-21
0.375 	-0.96875 	0.5 	40.0584 	0.0380962 	-2.74126e-20
0.390625 	-0.96875 	0.5 	40.0569 	0.0434613 	-2.42743e-19
0.40625 	-0.96875 	0.5 	40.0545 	0.0492145 	9.78128e-20
0.421875 	-0.96875 	0.5 	40.0522 	0.0543599 	6.63953e-19
0.4375 	-0.96875 	0.5 	40.0495 	0.0603862 	1.6682e-19
0.453125 	-0.96875 	0.5 	40.0461 	0.0659715 	4.37811e-20
0.46875 	-0.96875 	0.5 	40.0435 	0.0697444 	1.55594e-19
0.484375 	-0.96875 	0.5 	40.0408 	0.0736637 	1.74908e-19
0.5 	-0.96875 	0.5 	40.0372 	0.078618 	2.71829e-19
0.515625 	-0.96875 	0.5 	40.0337 	0.082372 	5.64123e-20
0.53125 	-0.96875 	0.5 	40.0297 	0.0861017 	-1.95868e-19
0.546875 	-0.96875 	0.5 	40.0246 	0.090921 	1.36192e-19
0.5625 	-0.96875 	0.5 	40.0213 	0.0947576 	1.35792e-18
0.578125 	-0.96875 	0.5 	40.0164 	0.0978429 	3.94141e-21
0.59375 	-0.96875 	0.5 	40.0116 	0.101289 	4.49969e-20
0.609375 	-0.96875 	0.5 	40.0062 	0.104855 	3.68916e-20
0.625 	-0.96875 	0.5 	40.002 	0.106172 	1.13805e-19
0.640625 	-0.96875 	0.5 	39.9962 	0.108078 	-1.1308e-20
0.65625 	-0.96875 	0.5 	39.9913 	0.109585 	5.68267e-20
0.671875 	-0.96875 	0.5 	39.9863 	0.11185 	2.01673e-21
0.6875 	-0.96875 	0.5 	39.9811 	0.112923 	-1.7377e-19
0.703125 	-0.96875 	0.5 	39.9759 	0.114994 	2.29412e-20
0.71875 	-0.96875 	0.5 	39.9712 	0.115823 	-2.50807e-19
0.734375 	-0.96875 	0.5 	39.9657 	0.116242 	1.75115e-20
0.75 	-0.96875 	0.5 	39.9604 	0.116536 	-6.56463e-21
0.765625 	-0.96875 	0.5 	39.9552 	0.116806 	-3.29923e-19
0.78125 	-0.96875 	0.5 	39.9501 	0.116739 	-2.00023e-19
0.796875 	-0.96875 	0.5 	39.945 	0.116455 	-1.08716e-19
0.8125 	-0.96875 	0.5 	39.9395 	0.116079 	-1.50026e-19
0.828125 	-0.96875 	0.5 	39.9348 	0.114412 	-2.39759e-19
0.84375 	-0.96875 	0.5 	39.93 	0.112408 	1.31248e-19
0.859375 	-0.96875 	0.5 	39.9254 	0.111111 	-3.79322e-19
0.875 	-0.96875 	0.5 	39.9208 	0.109982 	-6.97562e-19
0.890625 	-0.96875 	0.5 	39.916 	0.109231 	-4.18061e-19
0.90625 	-0.96875 	0.5 	39.9116 	0.106778 	-1.61493e-19
0.921875 	-0.96875 	0.5 	39.9072 	0.104555 	-2.08299e-20
0.9375 	-0.96875 	0.5 	39.9029 	0.101809 	2.98028e-19
0.953125 	-0.96875 	0.5 	39.8984 	0.0997175 	8.67677e-20
0.96875 	-0.96875 	0.5 	39.8948 	0.0970637 	-3.27309e-19
0.984375 	-0.96875 	0.5 	39.8911 	0.0942418 	-1.17704e-19
1 	-0.96875 	0.5 	39.8883 	0.0915955 	9.62724e-19
1.01562 	-0.96875 	0.5 	39.8853 	0.0880566 	-4.17454e-19
1.03125 	-0.96875 	0.5 	39.8823 	0.084842 	-3.98664e-19
1.04688 	-0.96875 	0.5 	39.8793 	0.0817882 	-2.16435e-19
1.0625 	-0.96875 	0.5 	39.8763 	0.0786259 	3.19422e-19
1.07812 	-0.96875 	0.5 	39.8734 	0.075233 	8.32699e-19
1.09375 	-0.96875 	0.5 	39.8709 	0.0718887 	4.70333e-19
1.10938 	-0.96875 	0.5 	39.869 	0.0688837 	1.91227e-19
1.125 	-0.96875 	0.5 	39.867 	0.0651972 	-5.15433e-19
1.14062 	-0.96875 	0.5 	39.8647 	0.0616958 	-3.08098e-19
1.15625 	-0.96875 	0.5 	39.863 	0.0592647 	1.1242e-18
1.17188 	-0.96875 	0.5 	39.8619 	0.0547014 	-1.69658e-19
1.1875 	-0.96875 	0.5 	39.8605 	0.0510741 	-3.89615e-19
1.20312 	-0.96875 	0.5 	39.8589 	0.0479494 	1.55164e-19
1.21875 	-0.96875 	0.5 	39.8576 	0.0446481 	-5.07249e-20
1.23438 	-0.96875 	0.5 	39.8564 	0.0410296 	2.79404e-19
1.25 	-0.96875 	0.5 	39.8554 	0.0374055 	3.13043e-19
1.26562 	-0.96875 	0.5 	39.8548 	0.0341316 	-2.43956e-19
1.28125 	-0.96875 	0.5 	39.8546 	0.0293241 	-2.28584e-19
1.29688 	-0.96875 	0.5 	39.8544 	0.0257046 	-1.52749e-19
1.3125 	-0.96875 	0.5 	39.8539 	0.0233501 	-1.28431e-19
1.32812 	-0.96875 	0.5 	39.8538 	0.0200762 	-8.17141e-20
1.34375 	-0.96875 	0.5 	39.8538 	0.0164849 	-3.49404e-19
1.35938 	-0.96875 	0.5 	39.8541 	0.0137168 	-1.0891e-18
1.375 	-0.96875 	0.5 	39.8544 	0.0107479 	-8.85384e-19
1.39062 	-0.96875 	0.5 	39.8546 	0.00767086 	-1.73931e-19
1.40625 	-0.96875 	0.5 	39.8551 	0.00452394 	3.11944e-20
1.42188 	-0.96875 	0.5 	39.8554 	0.00148398 	4.71277e-20
1.4375 	-0.96875 	0.5 	39.8557 	-0.0015384 	9.4873e-20
1.45312 	-0.96875 	0.5 	39.8565 	-0.00430222 	6.44087e-20
1.46875 	-0.96875 	0.5 	39.8575 	-0.00697899 	1.40344e-20
1.48438 	-0.96875 	0.5 	39.8585 	-0.00968464 	-1.34757e-20
-0.5 	-0.953125 	0.5 	39.8917 	-0.0600541 	-7.32979e-20
-0.484375 	-0.953125 	0.5 	39.8933 	-0.0629362 	2.56788e-19
-0.46875 	-0.953125 	0.5 	39.8958 	-0.0654033 	2.064e-19
-0.453125 	-0.953125 	0.5 	39.8984 	-0.0678117 	1.05245e-20
-0.4375 	-0.953125 	0.5 	39.9012 	-0.0701715 	2.669e-19
-0.421875 	-0.953125 	0.5 	39.9039 	-0.0725128 	6.71506e-19
-0.40625 	-0.953125 	0.5 	39.9065 	-0.0749221 	9.01937e-19
-0.390625 	-0.953125 	0.5 	39.9092 	-0.0779978 	2.00967e-19
-0.375 	-0.953125 	0.5 	39.9123 	-0.0802511 	9.72583e-20
-0.359375 	-0.953125 	0.5 	39.9152 	-0.0819857 	1.53356e-19
-0.34375 	-0.953125 	0.5 	39.9185 	-0.0838963 	3.80834e-19
-0.328125 	-0.953125 	0.5 	39.9221 	-0.0856971 	-3.612e-20
-0.3125 	-0.953125 	0.5 	39.9256 	-0.0875389 	1.65427e-19
-0.296875 	-0.953125 	0.5 	39.9295 	-0.0888336 	9.64001e-20
-0.28125 	-0.953125 	0.5 	39.9334 	-0.0904567 	9.58283e-20
-0.265625 	-0.953125 	0.5 	39.9373 	-0.0917749 	-3.23458e-19
-0.25 	-0.953125 	0.5 	39.9413 	-0.0930534 	5.41018e-20
-0.234375 	-0.953125 	0.5 	39.9459 	-0.0943468 	4.85481e-20
-0.21875 	-0.953125 	0.5 	39.9506 	-0.0951952 	8.99063e-20
-0.203125 	-0.953125 	0.5 	39.9546 	-0.0957584 	3.57596e-19
-0.1875 	-0.953125 	0.5 	39.9594 	-0.0957821 	5.94682e-19
-0.171875 	-0.953125 	0.5 	39.9638 	-0.0957287 	2.64021e-20
-0.15625 	-0.953125 	0.5 	39.9686 	-0.095736 	-1.05781e-19
-0.140625 	-0.953125 	0.5 	39.9728 	-0.0955665 	-1.66429e-20
-0.125 	-0.953125 	0.5 	39.9782 	-0.0950718 	-1.28229e-20
-0.109375 	-0.953125 	0.5 	39.9826 	-0.0942104 	1.47143e-20
-0.09375 	-0.953125 	0.5 	39.9877 	-0.0931683 	6.6001e-20
-0.078125 	-0.953125 	0.5 	39.9926 	-0.091986 	-9.93906e-20
-0.0625 	-0.953125 	0.5 	39.9975 	-0.0907159 	-4.71149e-19
-0.046875 	-0.953125 	0.5 	40.0027 	-0.0897281 	4.87462e-20
-0.03125 	-0.953125 	0.5 	40.0076 	-0.0870004 	-3.66196e-20
-0.015625 	-0.953125 	0.5 	40.0126 	-0.085926 	1.03185e-18
0 	-0.953125 	0.5 	40.0168 	-0.081875 	-5.45287e-19
0.015625 	-0.953125 	0.5 	40.0209 	-0.0788157 	-2.932e-19
0.03125 	-0.953125 	0.5 	40.0258 	-0.075719 	3.26863e-19
0.046875 	-0.953125 	0.5 	40.0295 	-0.0717857 	4.865e-19
0.0625 	-0.953125 	0.5 	40.0338 	-0.0682962 	2.47971e-19
0.078125 	-0.953125 	0.5 	40.0379 	-0.0641 	6.3871e-20
0.09375 	-0.953125 	0.5 	40.0417 	-0.0590037 	6.05453e-19
0.109375 	-0.953125 	0.5 	40.0451 	-0.0560294 	9.59358e-21
0.125 	-0.953125 	0.5 	40.0486 	-0.0513373 	-5.34019e-20
0.140625 	-0.953125 	0.5 	40.0524 	-0.04727 	-4.33623e-20
0.15625 	-0.953125 	0.5 	40.0544 	-0.0417782 	4.31851e-20
0.171875 	-0.953125 	0.5 	40.0572 	-0.0363394 	-1.33009e-19
0.1875 	-0.953125 	0.5 	40.0592 	-0.0310855 	-3.43446e-19
0.203125 	-0.953125 	0.5 	40.0614 	-0.0250135 	-2.98625e-20
0.21875 	-0.953125 	0.5 	40.0633 	-0.0199062 	-1.88066e-20
0.234375 	-0.953125 	0.5 	40.0644 	-0.0142482 	5.91633e-21
0.25 	-0.953125 	0.5 	40.0654 	-0.00783979 	-8.56797e-20
0.265625 	-0.953125 	0.5 	40.0667 	-0.00185361 	-2.07113e-19
0.28125 	-0.953125 	0.5 	40.0671 	0.00504957 	-6.23851e-19
0.296875 	-0.953125 	0.5 	40.0677 	0.0104827 	-7.78885e-20
0.3125 	-0.953125 	0.5 	40.0673 	0.0163912 	-9.75664e-20
0.328125 	-0.953125 	0.5 	40.0667 	0.0226813 	1.19172e-21
0.34375 	-0.953125 	0.5 	40.0664 	0.0282144 	-1.59745e-20
0.359375 	-0.953125 	0.5 	40.0651 	0.0342614 	-1.06202e-19
0.375 	-0.953125 	0.5 	40.064 	0.0394915 	-1.1398e-19
0.390625 	-0.953125 	0.5 	40.0623 	0.0450859 	-7.21703e-19
0.40625 	-0.953125 	0.5 	40.0601 	0.0514843 	1.51936e-19
0.421875 	-0.953125 	0.5 	40.0577 	0.0570056 	2.12304e-19
0.4375 	-0.953125 	0.5 	40.0549 	0.0627427 	1.8578e-19
0.453125 	-0.953125 	0.5 	40.0518 	0.0677511 	1.14701e-19
0.46875 	-0.953125 	0.5 	40.0486 	0.0725971 	9.04617e-20
0.484375 	-0.953125 	0.5 	40.0446 	0.0779837 	9.9912e-20
0.5 	-0.953125 	0.5 	40.0417 	0.081642 	-1.37588e-20
0.515625 	-0.953125 	0.5 	40.0379 	0.0859759 	-3.9816e-20
0.53125 	-0.953125 	0.5 	40.0335 	0.0903607 	-3.58874e-20
0.546875 	-0.953125 	0.5 	40.0279 	0.0951965 	9.01825e-20
0.5625 	-0.953125 	0.5 	40.0237 	0.0988062 	-8.04031e-20
0.578125 	-0.953125 	0.5 	40.0186 	0.101401 	-1.16201e-18
0.59375 	-0.953125 	0.5 	40.0138 	0.107003 	-5.20376e-20
0.609375 	-0.953125 	0.5 	40.0092 	0.109087 	-3.07104e-20
0.625 	-0.953125 	0.5 	40.0043 	0.11109 	6.06639e-20
0.640625 	-0.953125 	0.5 	39.9981 	0.113814 	-1.3431e-19
0.65625 	-0.953125 	0.5 	39.9925 	0.115605 	7.82797e-19
0.671875 	-0.953125 	0.5 	39.9873 	0.117972 	2.00979e-19
0.6875 	-0.953125 	0.5 	39.982 	0.119467 	-1.3032e-20
0.703125 	-0.953125 	0.5 	39.9766 	0.120571 	1.30906e-21
0.71875 	-0.953125 	0.5 	39.9711 	0.121349 	-1.94558e-20
0.734375 	-0.953125 	0.5 	39.9661 	0.122344 	1.46068e-19
0.75 	-0.953125 	0.5 	39.9603 	0.122078 	-7.51373e-20
0.765625 	-0.953125 	0.5 	39.9552 	0.121896 	-1.53932e-19
0.78125 	-0.953125 	0.5 	39.95 	0.121669 	-1.12791e-19
0.796875 	-0.953125 	0.5 	39.9443 	0.121869 	-2.04627e-20
0.8125 	-0.953125 	0.5 	39.9384 	0.121174 	1.18818e-19
0.828125 	-0.953125 	0.5 	39.9336 	0.119576 	-5.04903e-20
0.84375 	-0.953125 	0.5 	39.9286 	0.118082 	1.31183e-18
0.859375 	-0.953125 	0.5 	39.9232 	0.11642 	-2.58993e-19
0.875 	-0.953125 	0.5 	39.9186 	0.115558 	-3.6766e-19
0.890625 	-0.953125 	0.5 	39.9133 	0.113193 	-5.12962e-19
0.90625 	-0.953125 	0.5 	39.9091 	0.110951 	-8.35578e-20
0.921875 	-0.953125 	0.5 	39.9047 	0.108385 	9.62992e-20
0.9375 	-0.953125 	0.5 	39.9005 	0.105621 	1.47383e-19
0.953125 	-0.953125 	0.5 	39.8961 	0.103067 	-2.50476e-20
0.96875 	-0.953125 	0.5 	39.8924 	0.10043 	-4.21995e-19
0.984375 	-0.953125 	0.5 	39.8888 	0.0976981 	-3.71465e-19
1 	-0.953125 	0.5 	39.8848 	0.0948441 	1.36021e-19
1.01562 	-0.953125 	0.5 	39.8815 	0.0910751 	6.42311e-20
1.03125 	-0.953125 	0.5 	39.8784 	0.0876184 	-1.43367e-20
1.04688 	-0.953125 	0.5 	39.8754 	0.0849731 	-5.50246e-20
1.0625 	-0.953125 	0.5 	39.8724 	0.081094 	-4.91214e-20
1.07812 	-0.953125 	0.5 	39.8699 	0.0773814 	5.55093e-20
1.09375 	-0.953125 	0.5 	39.8676 	0.0740289 	1.83401e-19
1.10938 	-0.953125 	0.5 	39.8654 	0.0705547 	-5.29546e-20
1.125 	-0.953125 	0.5 	39.8633 	0.0669733 	-1.74437e-19
1.14062 	-0.953125 	0.5 	39.8612 	0.063392 	-2.9592e-19
1.15625 	-0.953125 	0.5 	39.859 	0.0601143 	1.90082e-19
1.17188 	-0.953125 	0.5 	39.8576 	0.0564367 	-5.3454e-20
1.1875 	-0.953125 	0.5 	39.8562 	0.0528923 	1.02171e-20
1.20312 	-0.953125 	0.5 	39.8548 	0.049296 	1.05595e-20
1.21875 	-0.953125 	0.5 	39.8539 	0.045343 	-2.4135e-20
1.23438 	-0.953125 	0.5 	39.8528 	0.0414223 	6.74312e-19
1.25 	-0.953125 	0.5 	39.8519 	0.0381789 	-2.01393e-19
1.26562 	-0.953125 	0.5 	39.8515 	0.0347722 	-2.98818e-20
1.28125 	-0.953125 	0.5 	39.851 	0.029833 	-1.11951e-19
1.29688 	-0.953125 	0.5 	39.8507 	0.0267549 	-6.5203e-20
1.3125 	-0.953125 	0.5 	39.8503 	0.02336 	-3.22369e-20
1.32812 	-0.953125 	0.5 	39.8503 	0.0201907 	2.36369e-20
1.34375 	-0.953125 	0.5 	39.8503 	0.0163959 	-1.17904e-19
1.35938 	-0.953125 	0.5 	39.8505 	0.0130822 	-5.57979e-19
1.375 	-0.953125 	0.5 	39.8507 	0.0101274 	-4.21038e-19
1.39062 	-0.953125 	0.5 	39.8513 	0.00639852 	1.36698e-18
1.40625 	-0.953125 	0.5 	39.852 	0.00303507 	2.044e-18
1.42188 	-0.953125 	0.5 	39.8524 	0.000749969 	2.00581e-19
1.4375 	-0.953125 	0.5 	39.8527 	-0.00228599 	2.50279e-19
1.45312 	-0.953125 	0.5 	39.8536 	-0.004995 	2.06932e-19
1.46875 	-0.953125 	0.5 	39.8546 	-0.00769517 	1.75086e-19
1.48438 	-0.953125 	0.5 	39.8556 	-0.0104552 	1.61348e-19
-0.5 	-0.9375 	0.5 	39.8887 	-0.0620138 	4.42996e-21
-0.484375 	-0.9375 	0.5 	39.8903 	-0.0648963 	3.33972e-19
-0.46875 	-0.9375 	0.5 	39.893 	-0.0672621 	3.22626e-20
-0.453125 	-0.9375 	0.5 	39.8953 	-0.069866 	-9.83944e-20
-0.4375 	-0.9375 	0.5 	39.898 	-0.0725134 	-1.41318e-18
-0.421875 	-0.9375 	0.5 	39.9006 	-0.0753969 	3.603e-19
-0.40625 	-0.9375 	0.5 	39.9031 	-0.0779018 	3.45386e-19
-0.390625 	-0.9375 	0.5 	39.907 	-0.0814987 	2.68695e-20
-0.375 	-0.9375 	0.5 	39.9095 	-0.0835327 	1.6046e-19
-0.359375 	-0.9375 	0.5 	39.9124 	-0.0852493 	2.23454e-19
-0.34375 	-0.9375 	0.5 	39.9161 	-0.0878987 	6.29438e-19
-0.328125 	-0.9375 	0.5 	39.9197 	-0.0895998 	4.71755e-19
-0.3125 	-0.9375 	0.5 	39.9234 	-0.0913995 	3.62748e-19
-0.296875 	-0.9375 	0.5 	39.9276 	-0.0942074 	6.24971e-19
-0.28125 	-0.9375 	0.5 	39.9317 	-0.0954706 	4.8271e-19
-0.265625 	-0.9375 	0.5 	39.9357 	-0.0959787 	-3.15369e-19
-0.25 	-0.9375 	0.5 	39.9399 	-0.0975946 	1.05205e-19
-0.234375 	-0.9375 	0.5 	39.9445 	-0.0991753 	4.69724e-20
-0.21875 	-0.9375 	0.5 	39.9493 	-0.0995971 	1.89711e-19
-0.203125 	-0.9375 	0.5 	39.9539 	-0.100104 	4.21158e-19
-0.1875 	-0.9375 	0.5 	39.9586 	-0.100334 	9.6784e-20
-0.171875 	-0.9375 	0.5 	39.9635 	-0.100748 	-3.33695e-20
-0.15625 	-0.9375 	0.5 	39.9682 	-0.100593 	-3.15966e-20
-0.140625 	-0.9375 	0.5 	39.9741 	-0.100432 	-1.16774e-19
-0.125 	-0.9375 	0.5 	39.9788 	-0.0999025 	-7.5678e-20
-0.109375 	-0.9375 	0.5 	39.9835 	-0.0990342 	-9.82749e-21