-0.5 	-1 	0.5 	48.0324
-0.484375 	-1 	0.5 	48.0081
-0.46875 	-1 	0.5 	47.9839
-0.453125 	-1 	0.5 	47.9498
-0.4375 	-1 	0.5 	47.9391
-0.421875 	-1 	0.5 	47.9337
-0.40625 	-1 	0.5 	47.8641
-0.390625 	-1 	0.5 	47.8174
-0.375 	-1 	0.5 	47.7294
-0.359375 	-1 	0.5 	47.6573
-0.34375 	-1 	0.5 	47.5661
-0.328125 	-1 	0.5 	47.492
-0.3125 	-1 	0.5 	47.4701
-0.296875 	-1 	0.5 	47.389
-0.28125 	-1 	0.5 	47.3555
-0.265625 	-1 	0.5 	47.2025
-0.25 	-1 	0.5 	47.0643
-0.234375 	-1 	0.5 	46.9
-0.21875 	-1 	0.5 	46.8245
-0.203125 	-1 	0.5 	46.7654
-0.1875 	-1 	0.5 	46.7566
-0.171875 	-1 	0.5 	46.6031
-0.15625 	-1 	0.5 	46.428
-0.140625 	-1 	0.5 	46.3063
-0.125 	-1 	0.5 	46.1892
-0.109375 	-1 	0.5 	46.0575
-0.09375 	-1 	0.5 	45.8612
-0.078125 	-1 	0.5 	45.7282
-0.0625 	-1 	0.5 	45.5955
-0.046875 	-1 	0.5 	45.4547
-0.03125 	-1 	0.5 	45.3068
-0.015625 	-1 	0.5 	45.131
0 	-1 	0.5 	44.977
0.015625 	-1 	0.5 	44.854
0.03125 	-1 	0.5 	44.727
0.046875 	-1 	0.5 	44.535
0.0625 	-1 	0.5 	44.3878
0.078125 	-1 	0.5 	44.2701
0.09375 	-1 	0.5 	44.0993
0.109375 	-1 	0.5 	43.9286
0.125 	-1 	0.5 	43.7919
0.140625 	-1 	0.5 	43.6839
0.15625 	-1 	0.5 	43.5957
0.171875 	-1 	0.5 	43.4687
0.1875 	-1 	0.5 	43.3407
0.203125 	-1 	0.5 	43.1337
0.21875 	-1 	0.5 	43.033
0.234375 	-1 	0.5 	42.9546
0.25 	-1 	0.5 	42.8508
0.265625 	-1 	0.5 	42.7609
0.28125 	-1 	0.5 	42.6646
0.296875 	-1 	0.5 	42.5661
0.3125 	-1 	0.5 	42.4785
0.328125 	-1 	0.5 	42.3923
0.34375 	-1 	0.5 	42.3109
0.359375 	-1 	0.5 	42.2728
0.375 	-1 	0.5 	42.2011
0.390625 	-1 	0.5 	42.1468
0.40625 	-1 	0.5 	42.1298
0.421875 	-1 	0.5 	42.1003
0.4375 	-1 	0.5 	42.0608
0.453125 	-1 	0.5 	42.0632
0.46875 	-1 	0.5 	42.0603
0.484375 	-1 	0.5 	42.033
0.5 	-1 	0.5 	42.0441
0.515625 	-1 	0.5 	42.0635
0.53125 	-1 	0.5 	42.0876
0.546875 	-1 	0.5 	42.1082
0.5625 	-1 	0.5 	42.1062
0.578125 	-1 	0.5 	42.1653
0.59375 	-1 	0.5 	42.2195
0.609375 	-1 	0.5 	42.2542
0.625 	-1 	0.5 	42.2931
0.640625 	-1 	0.5 	42.3099
0.65625 	-1 	0.5 	42.4085
0.671875 	-1 	0.5 	42.4997
0.6875 	-1 	0.5 	42.5763
0.703125 	-1 	0.5 	42.6589
0.71875 	-1 	0.5 	42.7391
0.734375 	-1 	0.5 	42.8233
0.75 	-1 	0.5 	42.8954
0.765625 	-1 	0.5 	42.9906
0.78125 	-1 	0.5 	43.0707
0.796875 	-1 	0.5 	43.1681
0.8125 	-1 	0.5 	43.2608
0.828125 	-1 	0.5 	43.3754
0.84375 	-1 	0.5 	43.4438
0.859375 	-1 	0.5 	43.5564
0.875 	-1 	0.5 	43.6537
0.890625 	-1 	0.5 	43.7472
0.90625 	-1 	0.5 	43.8465
0.921875 	-1 	0.5 	43.9567
0.9375 	-1 	0.5 	44.0539
0.953125 	-1 	0.5 	44.1457
0.96875 	-1 	0.5 	44.2376
0.984375 	-1 	0.5 	44.3182
1 	-1 	0.5 	44.3932
1.01562 	-1 	0.5 	44.4707
1.03125 	-1 	0.5 	44.5807
1.04688 	-1 	0.5 	44.6571
1.0625 	-1 	0.5 	44.7598
1.07812 	-1 	0.5 	44.8561
1.09375 	-1 	0.5 	44.935
1.10938 	-1 	0.5 	44.9954
1.125 	-1 	0.5 	45.0502
1.14062 	-1 	0.5 	45.1035
1.15625 	-1 	0.5 	45.1758
1.17188 	-1 	0.5 	45.2177
1.1875 	-1 	0.5 	45.2858
1.20312 	-1 	0.5 	45.3326
1.21875 	-1 	0.5 	45.371
1.23438 	-1 	0.5 	45.4111
1.25 	-1 	0.5 	45.4559
1.26562 	-1 	0.5 	45.5038
1.28125 	-1 	0.5 	45.5514
1.29688 	-1 	0.5 	45.5716
1.3125 	-1 	0.5 	45.6134
1.32812 	-1 	0.5 	45.6442
1.34375 	-1 	0.5 	45.6541
1.35938 	-1 	0.5 	45.6583
1.375 	-1 	0.5 	45.6679
1.39062 	-1 	0.5 	45.6802
1.40625 	-1 	0.5 	45.6983
1.42188 	-1 	0.5 	45.7353
1.4375 	-1 	0.5 	45.7363
1.45312 	-1 	0.5 	45.7291
1.46875 	-1 	0.5 	45.7322
1.48438 	-1 	0.5 	45.7075
-0.5 	-0.984375 	0.5 	48.1556
-0.484375 	-0.984375 	0.5 	48.1315
-0.46875 	-0.984375 	0.5 	48.1163
-0.453125 	-0.984375 	0.5 	48.0858
-0.4375 	-0.984375 	0.5 	48.0149
-0.421875 	-0.984375 	0.5 	47.9945
-0.40625 	-0.984375 	0.5 	47.9576
-0.390625 	-0.984375 	0.5 	47.9257
-0.375 	-0.984375 	0.5 	47.878
-0.359375 	-0.984375 	0.5 	47.7766
-0.34375 	-0.984375 	0.5 	47.6969
-0.328125 	-0.984375 	0.5 	47.6157
-0.3125 	-0.984375 	0.5 	47.5761
-0.296875 	-0.984375 	0.5 	47.5385
-0.28125 	-0.984375 	0.5 	47.4201
-0.265625 	-0.984375 	0.5 	47.3106
-0.25 	-0.984375 	0.5 	47.1857
-0.234375 	-0.984375 	0.5 	47.0265
-0.21875 	-0.984375 	0.5 	46.9489
-0.203125 	-0.984375 	0.5 	46.8769
-0.1875 	-0.984375 	0.5 	46.7454
-0.171875 	-0.984375 	0.5 	46.6363
-0.15625 	-0.984375 	0.5 	46.5042
-0.140625 	-0.984375 	0.5 	46.3488
-0.125 	-0.984375 	0.5 	46.2359
-0.109375 	-0.984375 	0.5 	46.1291
-0.09375 	-0.984375 	0.5 	45.9511
-0.078125 	-0.984375 	0.5 	45.7845
-0.0625 	-0.984375 	0.5 	45.6314
-0.046875 	-0.984375 	0.5 	45.4729
-0.03125 	-0.984375 	0.5 	45.3138
-0.015625 	-0.984375 	0.5 	45.1582
0 	-0.984375 	0.5 	45.0857
0.015625 	-0.984375 	0.5 	44.8775
0.03125 	-0.984375 	0.5 	44.6987
0.046875 	-0.984375 	0.5 	44.4994
0.0625 	-0.984375 	0.5 	44.3328
0.078125 	-0.984375 	0.5 	44.2197
0.09375 	-0.984375 	0.5 	44.0615
0.109375 	-0.984375 	0.5 	43.8948
0.125 	-0.984375 	0.5 	43.7478
0.140625 	-0.984375 	0.5 	43.6369
0.15625 	-0.984375 	0.5 	43.5136
0.171875 	-0.984375 	0.5 	43.3391
0.1875 	-0.984375 	0.5 	43.2409
0.203125 	-0.984375 	0.5 	43.1167
0.21875 	-0.984375 	0.5 	42.9636
0.234375 	-0.984375 	0.5 	42.8478
0.25 	-0.984375 	0.5 	42.7242
0.265625 	-0.984375 	0.5 	42.6534
0.28125 	-0.984375 	0.5 	42.541
0.296875 	-0.984375 	0.5 	42.4577
0.3125 	-0.984375 	0.5 	42.3757
0.328125 	-0.984375 	0.5 	42.2928
0.34375 	-0.984375 	0.5 	42.2146
0.359375 	-0.984375 	0.5 	42.1384
0.375 	-0.984375 	0.5 	42.0681
0.390625 	-0.984375 	0.5 	42.0057
0.40625 	-0.984375 	0.5 	41.9813
0.421875 	-0.984375 	0.5 	41.9569
0.4375 	-0.984375 	0.5 	41.9469
0.453125 	-0.984375 	0.5 	41.9374
0.46875 	-0.984375 	0.5 	41.9261
0.484375 	-0.984375 	0.5 	41.9046
0.5 	-0.984375 	0.5 	41.9123
0.515625 	-0.984375 	0.5 	41.919
0.53125 	-0.984375 	0.5 	41.9593
0.546875 	-0.984375 	0.5 	41.983
0.5625 	-0.984375 	0.5 	41.9945
0.578125 	-0.984375 	0.5 	42.0106
0.59375 	-0.984375 	0.5 	42.0747
0.609375 	-0.984375 	0.5 	42.1396
0.625 	-0.984375 	0.5 	42.1994
0.640625 	-0.984375 	0.5 	42.2514
0.65625 	-0.984375 	0.5 	42.3157
0.671875 	-0.984375 	0.5 	42.4118
0.6875 	-0.984375 	0.5 	42.5045
0.703125 	-0.984375 	0.5 	42.5722
0.71875 	-0.984375 	0.5 	42.668
0.734375 	-0.984375 	0.5 	42.7529
0.75 	-0.984375 	0.5 	42.8418
0.765625 	-0.984375 	0.5 	42.9308
0.78125 	-0.984375 	0.5 	43.0267
0.796875 	-0.984375 	0.5 	43.1226
0.8125 	-0.984375 	0.5 	43.2179
0.828125 	-0.984375 	0.5 	43.309
0.84375 	-0.984375 	0.5 	43.4258
0.859375 	-0.984375 	0.5 	43.536
0.875 	-0.984375 	0.5 	43.6364
0.890625 	-0.984375 	0.5 	43.7374
0.90625 	-0.984375 	0.5 	43.8538
0.921875 	-0.984375 	0.5 	43.9586
0.9375 	-0.984375 	0.5 	44.063
0.953125 	-0.984375 	0.5 	44.145
0.96875 	-0.984375 	0.5 	44.2555
0.984375 	-0.984375 	0.5 	44.3739
1 	-0.984375 	0.5 	44.4536
1.01562 	-0.984375 	0.5 	44.5354
1.03125 	-0.984375 	0.5 	44.6124
1.04688 	-0.984375 	0.5 	44.7015
1.0625 	-0.984375 	0.5 	44.7905
1.07812 	-0.984375 	0.5 	44.8842
1.09375 	-0.984375 	0.5 	44.9491
1.10938 	-0.984375 	0.5 	45.0138
1.125 	-0.984375 	0.5 	45.1101
1.14062 	-0.984375 	0.5 	45.1753
1.15625 	-0.984375 	0.5 	45.2395
1.17188 	-0.984375 	0.5 	45.2952
1.1875 	-0.984375 	0.5 	45.3508
1.20312 	-0.984375 	0.5 	45.403
1.21875 	-0.984375 	0.5 	45.4447
1.23438 	-0.984375 	0.5 	45.4869
1.25 	-0.984375 	0.5 	45.5291
1.26562 	-0.984375 	0.5 	45.5713
1.28125 	-0.984375 	0.5 	45.6085
1.29688 	-0.984375 	0.5 	45.6301
1.3125 	-0.984375 	0.5 	45.6554
1.32812 	-0.984375 	0.5 	45.6807
1.34375 	-0.984375 	0.5 	45.7063
1.35938 	-0.984375 	0.5 	45.728
1.375 	-0.984375 	0.5 	45.7401
1.39062 	-0.984375 	0.5 	45.7521
1.40625 	-0.984375 	0.5 	45.7694
1.42188 	-0.984375 	0.5 	45.8048
1.4375 	-0.984375 	0.5 	45.7922
1.45312 	-0.984375 	0.5 	45.8118
1.46875 	-0.984375 	0.5 	45.8161
1.48438 	-0.984375 	0.5 	45.7914
-0.5 	-0.96875 	0.5 	48.2908
-0.484375 	-0.96875 	0.5 	48.266
-0.46875 	-0.96875 	0.5 	48.2388
-0.453125 	-0.96875 	0.5 	48.2084
-0.4375 	-0.96875 	0.5 	48.1704
-0.421875 	-0.96875 	0.5 	48.1306
-0.40625 	-0.96875 	0.5 	48.1339
-0.390625 	-0.96875 	0.5 	48.0484
-0.375 	-0.96875 	0.5 	48.0014
-0.359375 	-0.96875 	0.5 	47.8964
-0.34375 	-0.96875 	0.5 	47.8202
-0.328125 	-0.96875 	0.5 	47.7441
-0.3125 	-0.96875 	0.5 	47.6762
-0.296875 	-0.96875 	0.5 	47.6126
-0.28125 	-0.96875 	0.5 	47.5565
-0.265625 	-0.96875 	0.5 	47.4309
-0.25 	-0.96875 	0.5 	47.3238
-0.234375 	-0.96875 	0.5 	47.1971
-0.21875 	-0.96875 	0.5 	47.0541
-0.203125 	-0.96875 	0.5 	46.9323
-0.1875 	-0.96875 	0.5 	46.8276
-0.171875 	-0.96875 	0.5 	46.7229
-0.15625 	-0.96875 	0.5 	46.575
-0.140625 	-0.96875 	0.5 	46.4253
-0.125 	-0.96875 	0.5 	46.3215
-0.109375 	-0.96875 	0.5 	46.178
-0.09375 	-0.96875 	0.5 	45.9909
-0.078125 	-0.96875 	0.5 	45.8403
-0.0625 	-0.96875 	0.5 	45.6568
-0.046875 	-0.96875 	0.5 	45.5286
-0.03125 	-0.96875 	0.5 	45.3579
-0.015625 	-0.96875 	0.5 	45.1964
0 	-0.96875 	0.5 	45.0572
0.015625 	-0.96875 	0.5 	44.909
0.03125 	-0.96875 	0.5 	44.7132
0.046875 	-0.96875 	0.5 	44.4638
0.0625 	-0.96875 	0.5 	44.3518
0.078125 	-0.96875 	0.5 	44.2257
0.09375 	-0.96875 	0.5 	44.0354
0.109375 	-0.96875 	0.5 	43.8699
0.125 	-0.96875 	0.5 	43.6912
0.140625 	-0.96875 	0.5 	43.5441
0.15625 	-0.96875 	0.5 	43.4717
0.171875 	-0.96875 	0.5 	43.2662
0.1875 	-0.96875 	0.5 	43.1383
0.203125 	-0.96875 	0.5 	43.0181
0.21875 	-0.96875 	0.5 	42.8801
0.234375 	-0.96875 	0.5 	42.7393
0.25 	-0.96875 	0.5 	42.6136
0.265625 	-0.96875 	0.5 	42.5003
0.28125 	-0.96875 	0.5 	42.4127
0.296875 	-0.96875 	0.5 	42.3046
0.3125 	-0.96875 	0.5 	42.2242
0.328125 	-0.96875 	0.5 	42.1431
0.34375 	-0.96875 	0.5 	42.0626
0.359375 	-0.96875 	0.5 	41.998
0.375 	-0.96875 	0.5 	41.9395
0.390625 	-0.96875 	0.5 	41.8884
0.40625 	-0.96875 	0.5 	41.8237
0.421875 	-0.96875 	0.5 	41.7952
0.4375 	-0.96875 	0.5 	41.8107
0.453125 	-0.96875 	0.5 	41.8234
0.46875 	-0.96875 	0.5 	41.803
0.484375 	-0.96875 	0.5 	41.7663
0.5 	-0.96875 	0.5 	41.7788
0.515625 	-0.96875 	0.5 	41.7785
0.53125 	-0.96875 	0.5 	41.8156
0.546875 	-0.96875 	0.5 	41.8369
0.5625 	-0.96875 	0.5 	41.863
0.578125 	-0.96875 	0.5 	41.9162
0.59375 	-0.96875 	0.5 	41.9611
0.609375 	-0.96875 	0.5 	42.04
0.625 	-0.96875 	0.5 	42.1249
0.640625 	-0.96875 	0.5 	42.1593
0.65625 	-0.96875 	0.5 	42.2197
0.671875 	-0.96875 	0.5 	42.3239
0.6875 	-0.96875 	0.5 	42.4069
0.703125 	-0.96875 	0.5 	42.498
0.71875 	-0.96875 	0.5 	42.597
0.734375 	-0.96875 	0.5 	42.6788
0.75 	-0.96875 	0.5 	42.7677
0.765625 	-0.96875 	0.5 	42.8656
0.78125 	-0.96875 	0.5 	42.9546
0.796875 	-0.96875 	0.5 	43.0518
0.8125 	-0.96875 	0.5 	43.1662
0.828125 	-0.96875 	0.5 	43.2834
0.84375 	-0.96875 	0.5 	43.3954
0.859375 	-0.96875 	0.5 	43.5075
0.875 	-0.96875 	0.5 	43.6229
0.890625 	-0.96875 	0.5 	43.7384
0.90625 	-0.96875 	0.5 	43.8525
0.921875 	-0.96875 	0.5 	43.9606
0.9375 	-0.96875 	0.5 	44.0581
0.953125 	-0.96875 	0.5 	44.1737
0.96875 	-0.96875 	0.5 	44.2744
0.984375 	-0.96875 	0.5 	44.4036
1 	-0.96875 	0.5 	44.483
1.01562 	-0.96875 	0.5 	44.5661
1.03125 	-0.96875 	0.5 	44.6463
1.04688 	-0.96875 	0.5 	44.7239
1.0625 	-0.96875 	0.5 	44.8184
1.07812 	-0.96875 	0.5 	44.9306
1.09375 	-0.96875 	0.5 	45.0165
1.10938 	-0.96875 	0.5 	45.0645
1.125 	-0.96875 	0.5 	45.1668
1.14062 	-0.96875 	0.5 	45.2331
1.15625 	-0.96875 	0.5 	45.295
1.17188 	-0.96875 	0.5 	45.3735
1.1875 	-0.96875 	0.5 	45.4219
1.20312 	-0.96875 	0.5 	45.4832
1.21875 	-0.96875 	0.5 	45.5282
1.23438 	-0.96875 	0.5 	45.5656
1.25 	-0.96875 	0.5 	45.6144
1.26562 	-0.96875 	0.5 	45.6609
1.28125 	-0.96875 	0.5 	45.6918
1.29688 	-0.96875 	0.5 	45.7178
1.3125 	-0.96875 	0.5 	45.7258
1.32812 	-0.96875 	0.5 	45.7486
1.34375 	-0.96875 	0.5 	45.7869
1.35938 	-0.96875 	0.5 	45.816
1.375 	-0.96875 	0.5 	45.8232
1.39062 	-0.96875 	0.5 	45.83
1.40625 	-0.96875 	0.5 	45.8431
1.42188 	-0.96875 	0.5 	45.8721
1.4375 	-0.96875 	0.5 	45.873
1.45312 	-0.96875 	0.5 	45.867
1.46875 	-0.96875 	0.5 	45.8494
1.48438 	-0.96875 	0.5 	45.8357
-0.5 	-0.953125 	0.5 	48.4051
-0.484375 	-0.953125 	0.5 	48.4003
-0.46875 	-0.953125 	0.5 	48.3659
-0.453125 	-0.953125 	0.5 	48.339
-0.4375 	-0.953125 	0.5 	48.3168
-0.421875 	-0.953125 	0.5 	48.2933
-0.40625 	-0.953125 	0.5 	48.2539
-0.390625 	-0.953125 	0.5 	48.1822
-0.375 	-0.953125 	0.5 	48.1249
-0.359375 	-0.953125 	0.5 	48.0427
-0.34375 	-0.953125 	0.5 	47.9597
-0.328125 	-0.953125 	0.5 	47.8777
-0.3125 	-0.953125 	0.5 	47.7772
-0.296875 	-0.953125 	0.5 	47.6717
-0.28125 	-0.953125 	0.5 	47.5999
-0.265625 	-0.953125 	0.5 	47.5311
-0.25 	-0.953125 	0.5 	47.4173
-0.234375 	-0.953125 	0.5 	47.3091
-0.21875 	-0.953125 	0.5 	47.1701
-0.203125 	-0.953125 	0.5 	47.0363
-0.1875 	-0.953125 	0.5 	46.9137
-0.171875 	-0.953125 	0.5 	46.7662
-0.15625 	-0.953125 	0.5 	46.6406
-0.140625 	-0.953125 	0.5 	46.5119
-0.125 	-0.953125 	0.5 	46.3626
-0.109375 	-0.953125 	0.5 	46.2124
-0.09375 	-0.953125 	0.5 	46.046
-0.078125 	-0.953125 	0.5 	45.8724
-0.0625 	-0.953125 	0.5 	45.6893
-0.046875 	-0.953125 	0.5 	45.5285
-0.03125 	-0.953125 	0.5 	45.3465
-0.015625 	-0.953125 	0.5 	45.1816
0 	-0.953125 	0.5 	45.0406
0.015625 	-0.953125 	0.5 	44.8905
0.03125 	-0.953125 	0.5 	44.6997
0.046875 	-0.953125 	0.5 	44.4971
0.0625 	-0.953125 	0.5 	44.336
0.078125 	-0.953125 	0.5 	44.1702
0.09375 	-0.953125 	0.5 	44.0018
0.109375 	-0.953125 	0.5 	43.8307
0.125 	-0.953125 	0.5 	43.6402
0.140625 	-0.953125 	0.5 	43.5322
0.15625 	-0.953125 	0.5 	43.3561
0.171875 	-0.953125 	0.5 	43.1883
0.1875 	-0.953125 	0.5 	43.0637
0.203125 	-0.953125 	0.5 	42.914
0.21875 	-0.953125 	0.5 	42.7819
0.234375 	-0.953125 	0.5 	42.6228
0.25 	-0.953125 	0.5 	42.4878
0.265625 	-0.953125 	0.5 	42.3702
0.28125 	-0.953125 	0.5 	42.2768
0.296875 	-0.953125 	0.5 	42.1633
0.3125 	-0.953125 	0.5 	42.0757
0.328125 	-0.953125 	0.5 	41.9992
0.34375 	-0.953125 	0.5 	41.9189
0.359375 	-0.953125 	0.5 	41.863
0.375 	-0.953125 	0.5 	41.7943
0.390625 	-0.953125 	0.5 	41.743
0.40625 	-0.953125 	0.5 	41.7127
0.421875 	-0.953125 	0.5 	41.6534
0.4375 	-0.953125 	0.5 	41.6573
0.453125 	-0.953125 	0.5 	41.6668
0.46875 	-0.953125 	0.5 	41.6375
0.484375 	-0.953125 	0.5 	41.6103
0.5 	-0.953125 	0.5 	41.6154
0.515625 	-0.953125 	0.5 	41.6426
0.53125 	-0.953125 	0.5 	41.6542
0.546875 	-0.953125 	0.5 	41.6761
0.5625 	-0.953125 	0.5 	41.7026
0.578125 	-0.953125 	0.5 	41.7838
0.59375 	-0.953125 	0.5 	41.8379
0.609375 	-0.953125 	0.5 	41.9642
0.625 	-0.953125 	0.5 	41.9883
0.640625 	-0.953125 	0.5 	42.0675
0.65625 	-0.953125 	0.5 	42.1089
0.671875 	-0.953125 	0.5 	42.1811
0.6875 	-0.953125 	0.5 	42.3039
0.703125 	-0.953125 	0.5 	42.4156
0.71875 	-0.953125 	0.5 	42.5102
0.734375 	-0.953125 	0.5 	42.6047
0.75 	-0.953125 	0.5 	42.6961
0.765625 	-0.953125 	0.5 	42.8102
0.78125 	-0.953125 	0.5 	42.9095
0.796875 	-0.953125 	0.5 	43.0128
0.8125 	-0.953125 	0.5 	43.127
0.828125 	-0.953125 	0.5 	43.2531
0.84375 	-0.953125 	0.5 	43.3655
0.859375 	-0.953125 	0.5 	43.4792
0.875 	-0.953125 	0.5 	43.6066
0.890625 	-0.953125 	0.5 	43.7232
0.90625 	-0.953125 	0.5 	43.84
0.921875 	-0.953125 	0.5 	43.9609
0.9375 	-0.953125 	0.5 	44.0743
0.953125 	-0.953125 	0.5 	44.1849
0.96875 	-0.953125 	0.5 	44.2934
0.984375 	-0.953125 	0.5 	44.3982
1 	-0.953125 	0.5 	44.4675
1.01562 	-0.953125 	0.5 	44.5562
1.03125 	-0.953125 	0.5 	44.6717
1.04688 	-0.953125 	0.5 	44.7534
1.0625 	-0.953125 	0.5 	44.9236
1.07812 	-0.953125 	0.5 	44.9798
1.09375 	-0.953125 	0.5 	45.0821
1.10938 	-0.953125 	0.5 	45.1523
1.125 	-0.953125 	0.5 	45.2247
1.14062 	-0.953125 	0.5 	45.278
1.15625 	-0.953125 	0.5 	45.3456
1.17188 	-0.953125 	0.5 	45.434
1.1875 	-0.953125 	0.5 	45.4919
1.20312 	-0.953125 	0.5 	45.5592
1.21875 	-0.953125 	0.5 	45.6155
1.23438 	-0.953125 	0.5 	45.6575
1.25 	-0.953125 	0.5 	45.7038
1.26562 	-0.953125 	0.5 	45.7437
1.28125 	-0.953125 	0.5 	45.773
1.29688 	-0.953125 	0.5 	45.8019
1.3125 	-0.953125 	0.5 	45.827
1.32812 	-0.953125 	0.5 	45.8417
1.34375 	-0.953125 	0.5 	45.8777
1.35938 	-0.953125 	0.5 	45.9022
1.375 	-0.953125 	0.5 	45.9152
1.39062 	-0.953125 	0.5 	45.9217
1.40625 	-0.953125 	0.5 	45.9248
1.42188 	-0.953125 	0.5 	45.9335
1.4375 	-0.953125 	0.5 	45.9218
1.45312 	-0.953125 	0.5 	45.9126
1.46875 	-0.953125 	0.5 	45.9034
1.48438 	-0.953125 	0.5 	45.8987
-0.5 	-0.9375 	0.5 	48.5632
-0.484375 	-0.9375 	0.5 	48.5359
-0.46875 	-0.9375 	0.5 	48.509
-0.453125 	-0.9375 	0.5 	48.482
-0.4375 	-0.9375 	0.5 	48.4549
-0.421875 	-0.9375 	0.5 	48.4159
-0.40625 	-0.9375 	0.5 	48.3995
-0.390625 	-0.9375 	0.5 	48.3396
-0.375 	-0.9375 	0.5 	48.2189
-0.359375 	-0.9375 	0.5 	48.1672
-0.34375 	-0.9375 	0.5 	48.0843
-0.328125 	-0.9375 	0.5 	48.0103
-0.3125 	-0.9375 	0.5 	47.9005
-0.296875 	-0.9375 	0.5 	47.8259
-0.28125 	-0.9375 	0.5 	47.7113
-0.265625 	-0.9375 	0.5 	47.6662
-0.25 	-0.9375 	0.5 	47.5472
-0.234375 	-0.9375 	0.5 	47.4318
-0.21875 	-0.9375 	0.5 	47.2861
-0.203125 	-0.9375 	0.5 	47.1503
-0.1875 	-0.9375 	0.5 	47.0246
-0.171875 	-0.9375 	0.5 	46.8768
-0.15625 	-0.9375 	0.5 	46.7313
-0.140625 	-0.9375 	0.5 	46.5713
-0.125 	-0.9375 	0.5 	46.4317
-0.109375 	-0.9375 	0.5 	46.2772
-0.09375 	-0.9375 	0.5 	46.1075
-0.078125 	-0.9375 	0.5 	45.9049
-0.0625 	-0.9375 	0.5 	45.7287
-0.046875 	-0.9375 	0.5 	45.5387
-0.03125 	-0.9375 	0.5 	45.3445
-0.015625 	-0.9375 	0.5 	45.1989
0 	-0.9375 	0.5 	45.0305
0.015625 	-0.9375 	0.5 	44.8763
0.03125 	-0.9375 	0.5 	44.6491
0.046875 	-0.9375 	0.5 	44.477
0.0625 	-0.9375 	0.5 	44.2924
0.078125 	-0.9375 	0.5 	44.1648
0.09375 	-0.9375 	0.5 	43.9563
0.109375 	-0.9375 	0.5 	43.7737
0.125 	-0.9375 	0.5 	43.596
0.140625 	-0.9375 	0.5 	43.4408
0.15625 	-0.9375 	0.5 	43.2494
0.171875 	-0.9375 	0.5 	43.0585
0.1875 	-0.9375 	0.5 	42.9383
0.203125 	-0.9375 	0.5 	42.8018
0.21875 	-0.9375 	0.5 	42.6642
0.234375 	-0.9375 	0.5 	42.5194
0.25 	-0.9375 	0.5 	42.3869
0.265625 	-0.9375 	0.5 	42.2992
0.28125 	-0.9375 	0.5 	42.1351
0.296875 	-0.9375 	0.5 	42.0299
0.3125 	-0.9375 	0.5 	41.8975
0.328125 	-0.9375 	0.5 	41.8581
0.34375 	-0.9375 	0.5 	41.7799
0.359375 	-0.9375 	0.5 	41.7113
0.375 	-0.9375 	0.5 	41.6499
0.390625 	-0.9375 	0.5 	41.6169
0.40625 	-0.9375 	0.5 	41.577
0.421875 	-0.9375 	0.5 	41.4995
0.4375 	-0.9375 	0.5 	41.4851
0.453125 	-0.9375 	0.5 	41.5002
0.46875 	-0.9375 	0.5 	41.4095
0.484375 	-0.9375 	0.5 	41.4305
0.5 	-0.9375 	0.5 	41.4675
0.515625 	-0.9375 	0.5 	41.4842
0.53125 	-0.9375 	0.5 	41.5027
0.546875 	-0.9375 	0.5 	41.5286
0.5625 	-0.9375 	0.5 	41.5936
0.578125 	-0.9375 	0.5 	41.658
0.59375 	-0.9375 	0.5 	41.6975
0.609375 	-0.9375 	0.5 	41.7942
0.625 	-0.9375 	0.5 	41.8686
0.640625 	-0.9375 	0.5 	41.9092
0.65625 	-0.9375 	0.5 	41.9726
0.671875 	-0.9375 	0.5 	42.0839
0.6875 	-0.9375 	0.5 	42.2058
0.703125 	-0.9375 	0.5 	42.2914
0.71875 	-0.9375 	0.5 	42.3941
0.734375 	-0.9375 	0.5 	42.5264
0.75 	-0.9375 	0.5 	42.6322
0.765625 	-0.9375 	0.5 	42.7665
0.78125 	-0.9375 	0.5 	42.8717
0.796875 	-0.9375 	0.5 	42.9677
0.8125 	-0.9375 	0.5 	43.0962
0.828125 	-0.9375 	0.5 	43.2179
0.84375 	-0.9375 	0.5 	43.3363
0.859375 	-0.9375 	0.5 	43.4611
0.875 	-0.9375 	0.5 	43.5888
0.890625 	-0.9375 	0.5 	43.7077
0.90625 	-0.9375 	0.5 	43.8218
0.921875 	-0.9375 	0.5 	43.967
0.9375 	-0.9375 	0.5 	44.0522
0.953125 	-0.9375 	0.5 	44.1745
0.96875 	-0.9375 	0.5 	44.3016
0.984375 	-0.9375 	0.5 	44.416
1 	-0.9375 	0.5 	44.5099
1.01562 	-0.9375 	0.5 	44.6039
1.03125 	-0.9375 	0.5 	44.6978
1.04688 	-0.9375 	0.5 	44.7997
1.0625 	-0.9375 	0.5 	44.9593
1.07812 	-0.9375 	0.5 	45.0289
1.09375 	-0.9375 	0.5 	45.1202
1.10938 	-0.9375 	0.5 	45.2003
1.125 	-0.9375 	0.5 	45.2921
1.14062 	-0.9375 	0.5 	45.3435
1.15625 	-0.9375 	0.5 	45.4158
1.17188 	-0.9375 	0.5 	45.4937
1.1875 	-0.9375 	0.5 	45.5695
1.20312 	-0.9375 	0.5 	45.6333
1.21875 	-0.9375 	0.5 	45.6972
1.23438 	-0.9375 	0.5 	45.7417
1.25 	-0.9375 	0.5 	45.7853
1.26562 	-0.9375 	0.5 	45.8249
1.28125 	-0.9375 	0.5 	45.8541
1.29688 	-0.9375 	0.5 	45.8831
1.3125 	-0.9375 	0.5 	45.912
1.32812 	-0.9375 	0.5 	45.9362
1.34375 	-0.9375 	0.5 	45.9597
1.35938 	-0.9375 	0.5 	45.9674
1.375 	-0.9375 	0.5 	45.9873
1.39062 	-0.9375 	0.5 	46.0072
1.40625 	-0.9375 	0.5 	46.0141
1.42188 	-0.9375 	0.5 	46.0131
1.4375 	-0.9375 	0.5 	45.9918
1.45312 	-0.9375 	0.5 	45.9844
1.46875 	-0.9375 	0.5 	45.974
1.48438 	-0.9375 	0.5 	45.9707
-0.5 	-0.921875 	0.5 	48.7
-0.484375 	-0.921875 	0.5 	48.6803
-0.46875 	-0.921875 	0.5 	48.6551
-0.453125 	-0.921875 	0.5 	48.6281
-0.4375 	-0.921875 	0.5 	48.5758
-0.421875 	-0.921875 	0.5 	48.5536
-0.40625 	-0.921875 	0.5 	48.5081
-0.390625 	-0.921875 	0.5 	48.4587
-0.375 	-0.921875 	0.5 	48.3571
-0.359375 	-0.921875 	0.5 	48.2825
-0.34375 	-0.921875 	0.5 	48.2132
-0.328125 	-0.921875 	0.5 	48.1364
-0.3125 	-0.921875 	0.5 	48.0238
-0.296875 	-0.921875 	0.5 	47.9223
-0.28125 	-0.921875 	0.5 	47.8703
-0.265625 	-0.921875 	0.5 	47.788
-0.25 	-0.921875 	0.5 	47.6585
-0.234375 	-0.921875 	0.5 	47.5448
-0.21875 	-0.921875 	0.5 	47.4056
-0.203125 	-0.921875 	0.5 	47.2683
-0.1875 	-0.921875 	0.5 	47.1258
-0.171875 	-0.921875 	0.5 	46.9741
-0.15625 	-0.921875 	0.5 	46.8242
-0.140625 	-0.921875 	0.5 	46.6431
-0.125 	-0.921875 	0.5 	46.5045
-0.109375 	-0.921875 	0.5 	46.3513
-0.09375 	-0.921875 	0.5 	46.1717
-0.078125 	-0.921875 	0.5 	45.9991
-0.0625 	-0.921875 	0.5 	45.8138
-0.046875 	-0.921875 	0.5 	45.629
-0.03125 	-0.921875 	0.5 	45.4005
-0.015625 	-0.921875 	0.5 	45.219
0 	-0.921875 	0.5 	45.1133
0.015625 	-0.921875 	0.5 	44.9295
0.03125 	-0.921875 	0.5 	44.6609
0.046875 	-0.921875 	0.5 	44.4422
0.0625 	-0.921875 	0.5 	44.2496
0.078125 	-0.921875 	0.5 	44.0863
0.09375 	-0.921875 	0.5 	43.8996
0.109375 	-0.921875 	0.5 	43.6966
0.125 	-0.921875 	0.5 	43.5368
0.140625 	-0.921875 	0.5 	43.3463
0.15625 	-0.921875 	0.5 	43.1471
0.171875 	-0.921875 	0.5 	42.9688
0.1875 	-0.921875 	0.5 	42.8326
0.203125 	-0.921875 	0.5 	42.7015
0.21875 	-0.921875 	0.5 	42.5752
0.234375 	-0.921875 	0.5 	42.402
0.25 	-0.921875 	0.5 	42.2417
0.265625 	-0.921875 	0.5 	42.1291
0.28125 	-0.921875 	0.5 	42.0276
0.296875 	-0.921875 	0.5 	41.88
0.3125 	-0.921875 	0.5 	41.8096
0.328125 	-0.921875 	0.5 	41.7048
0.34375 	-0.921875 	0.5 	41.6341
0.359375 	-0.921875 	0.5 	41.5421
0.375 	-0.921875 	0.5 	41.4775
0.390625 	-0.921875 	0.5 	41.4224
0.40625 	-0.921875 	0.5 	41.3777
0.421875 	-0.921875 	0.5 	41.3478
0.4375 	-0.921875 	0.5 	41.333
0.453125 	-0.921875 	0.5 	41.319
0.46875 	-0.921875 	0.5 	41.3105
0.484375 	-0.921875 	0.5 	41.2861
0.5 	-0.921875 	0.5 	41.2938
0.515625 	-0.921875 	0.5 	41.3239
0.53125 	-0.921875 	0.5 	41.3496
0.546875 	-0.921875 	0.5 	41.3857
0.5625 	-0.921875 	0.5 	41.4459
0.578125 	-0.921875 	0.5 	41.5177
0.59375 	-0.921875 	0.5 	41.5451
0.609375 	-0.921875 	0.5 	41.631
0.625 	-0.921875 	0.5 	41.7238
0.640625 	-0.921875 	0.5 	41.8348
0.65625 	-0.921875 	0.5 	41.9217
0.671875 	-0.921875 	0.5 	41.9606
0.6875 	-0.921875 	0.5 	42.0506
0.703125 	-0.921875 	0.5 	42.1646
0.71875 	-0.921875 	0.5 	42.3039
0.734375 	-0.921875 	0.5 	42.4466
0.75 	-0.921875 	0.5 	42.5585
0.765625 	-0.921875 	0.5 	42.7085
0.78125 	-0.921875 	0.5 	42.8391
0.796875 	-0.921875 	0.5 	42.9511
0.8125 	-0.921875 	0.5 	43.0596
0.828125 	-0.921875 	0.5 	43.1745
0.84375 	-0.921875 	0.5 	43.3021
0.859375 	-0.921875 	0.5 	43.437
0.875 	-0.921875 	0.5 	43.5701
0.890625 	-0.921875 	0.5 	43.6965
0.90625 	-0.921875 	0.5 	43.8249
0.921875 	-0.921875 	0.5 	43.9731
0.9375 	-0.921875 	0.5 	44.0804
0.953125 	-0.921875 	0.5 	44.1819
0.96875 	-0.921875 	0.5 	44.3211
0.984375 	-0.921875 	0.5 	44.444
1 	-0.921875 	0.5 	44.563
1.01562 	-0.921875 	0.5 	44.657
1.03125 	-0.921875 	0.5 	44.7546
1.04688 	-0.921875 	0.5 	44.8643
1.0625 	-0.921875 	0.5 	44.9659
1.07812 	-0.921875 	0.5 	45.071
1.09375 	-0.921875 	0.5 	45.1782
1.10938 	-0.921875 	0.5 	45.2774
1.125 	-0.921875 	0.5 	45.3671
1.14062 	-0.921875 	0.5 	45.4278
1.15625 	-0.921875 	0.5 	45.4894
1.17188 	-0.921875 	0.5 	45.5701
1.1875 	-0.921875 	0.5 	45.6549
1.20312 	-0.921875 	0.5 	45.737
1.21875 	-0.921875 	0.5 	45.7797
1.23438 	-0.921875 	0.5 	45.8416
1.25 	-0.921875 	0.5 	45.8675
1.26562 	-0.921875 	0.5 	45.905
1.28125 	-0.921875 	0.5 	45.9352
1.29688 	-0.921875 	0.5 	45.964
1.3125 	-0.921875 	0.5 	45.9916
1.32812 	-0.921875 	0.5 	46.0269
1.34375 	-0.921875 	0.5 	46.0487
1.35938 	-0.921875 	0.5 	46.076
1.375 	-0.921875 	0.5 	46.1033
1.39062 	-0.921875 	0.5 	46.0999
1.40625 	-0.921875 	0.5 	46.1127
1.42188 	-0.921875 	0.5 	46.1061
1.4375 	-0.921875 	0.5 	46.0663
1.45312 	-0.921875 	0.5 	46.0506
1.46875 	-0.921875 	0.5 	46.0506
1.48438 	-0.921875 	0.5 	46.0426
-0.5 	-0.90625 	0.5 	48.8392
-0.484375 	-0.90625 	0.5 	48.8205
-0.46875 	-0.90625 	0.5 	48.7957
-0.453125 	-0.90625 	0.5 	48.7791
-0.4375 	-0.90625 	0.5 	48.7214
-0.421875 	-0.90625 	0.5 	48.7072
-0.40625 	-0.90625 	0.5 	48.6612
-0.390625 	-0.90625 	0.5 	48.6137
-0.375 	-0.90625 	0.5 	48.5471
-0.359375 	-0.90625 	0.5 	48.4364
-0.34375 	-0.90625 	0.5 	48.3342
-0.328125 	-0.90625 	0.5 	48.2476
-0.3125 	-0.90625 	0.5 	48.1521
-0.296875 	-0.90625 	0.5 	48.0967
-0.28125 	-0.90625 	0.5 	48.0269
-0.265625 	-0.90625 	0.5 	47.9115
-0.25 	-0.90625 	0.5 	47.8278
-0.234375 	-0.90625 	0.5 	47.6756
-0.21875 	-0.90625 	0.5 	47.5345
-0.203125 	-0.90625 	0.5 	47.3969
-0.1875 	-0.90625 	0.5 	47.2692
-0.171875 	-0.90625 	0.5 	47.0921
-0.15625 	-0.90625 	0.5 	46.9213
-0.140625 	-0.90625 	0.5 	46.7602
-0.125 	-0.90625 	0.5 	46.5971
-0.109375 	-0.90625 	0.5 	46.4201
-0.09375 	-0.90625 	0.5 	46.2464
-0.078125 	-0.90625 	0.5 	46.0698
-0.0625 	-0.90625 	0.5 	45.8757
-0.046875 	-0.90625 	0.5 	45.6696
-0.03125 	-0.90625 	0.5 	45.4632
-0.015625 	-0.90625 	0.5 	45.2516
0 	-0.90625 	0.5 	45.0985
0.015625 	-0.90625 	0.5 	44.9065
0.03125 	-0.90625 	0.5 	44.6634
0.046875 	-0.90625 	0.5 	44.3957
0.0625 	-0.90625 	0.5 	44.2026
0.078125 	-0.90625 	0.5 	44.0508
0.09375 	-0.90625 	0.5 	43.8733
0.109375 	-0.90625 	0.5 	43.6855
0.125 	-0.90625 	0.5 	43.4612
0.140625 	-0.90625 	0.5 	43.2957
0.15625 	-0.90625 	0.5 	43.09
0.171875 	-0.90625 	0.5 	42.8876
0.1875 	-0.90625 	0.5 	42.7956
0.203125 	-0.90625 	0.5 	42.6451
0.21875 	-0.90625 	0.5 	42.4787
0.234375 	-0.90625 	0.5 	42.1982
0.25 	-0.90625 	0.5 	42.1049
0.265625 	-0.90625 	0.5 	41.982
0.28125 	-0.90625 	0.5 	41.8689
0.296875 	-0.90625 	0.5 	41.7678
0.3125 	-0.90625 	0.5 	41.6497
0.328125 	-0.90625 	0.5 	41.5462
0.34375 	-0.90625 	0.5 	41.4489
0.359375 	-0.90625 	0.5 	41.3521
0.375 	-0.90625 	0.5 	41.3013
0.390625 	-0.90625 	0.5 	41.2363
0.40625 	-0.90625 	0.5 	41.1705
0.421875 	-0.90625 	0.5 	41.1542
0.4375 	-0.90625 	0.5 	41.14
0.453125 	-0.90625 	0.5 	41.1295
0.46875 	-0.90625 	0.5 	41.1311
0.484375 	-0.90625 	0.5 	41.1346
0.5 	-0.90625 	0.5 	41.1335
0.515625 	-0.90625 	0.5 	41.167
0.53125 	-0.90625 	0.5 	41.2387
0.546875 	-0.90625 	0.5 	41.2161
0.5625 	-0.90625 	0.5 	41.3101
0.578125 	-0.90625 	0.5 	41.3511
0.59375 	-0.90625 	0.5 	41.4176
0.609375 	-0.90625 	0.5 	41.4807
0.625 	-0.90625 	0.5 	41.5913
0.640625 	-0.90625 	0.5 	41.7251
0.65625 	-0.90625 	0.5 	41.8014
0.671875 	-0.90625 	0.5 	41.8487
0.6875 	-0.90625 	0.5 	41.9597
0.703125 	-0.90625 	0.5 	42.0376
0.71875 	-0.90625 	0.5 	42.2231
0.734375 	-0.90625 	0.5 	42.3526
0.75 	-0.90625 	0.5 	42.4906
0.765625 	-0.90625 	0.5 	42.6507
0.78125 	-0.90625 	0.5 	42.7666
0.796875 	-0.90625 	0.5 	42.8829
0.8125 	-0.90625 	0.5 	42.9661
0.828125 	-0.90625 	0.5 	43.1445
0.84375 	-0.90625 	0.5 	43.2689
0.859375 	-0.90625 	0.5 	43.4034
0.875 	-0.90625 	0.5 	43.5415
0.890625 	-0.90625 	0.5 	43.7078
0.90625 	-0.90625 	0.5 	43.8462
0.921875 	-0.90625 	0.5 	43.9817
0.9375 	-0.90625 	0.5 	44.0997
0.953125 	-0.90625 	0.5 	44.2106
0.96875 	-0.90625 	0.5 	44.3467
0.984375 	-0.90625 	0.5 	44.4677
1 	-0.90625 	0.5 	44.5935
1.01562 	-0.90625 	0.5 	44.71
1.03125 	-0.90625 	0.5 	44.8141
1.04688 	-0.90625 	0.5 	44.9149
1.0625 	-0.90625 	0.5 	45.016
1.07812 	-0.90625 	0.5 	45.1294
1.09375 	-0.90625 	0.5 	45.2408
1.10938 	-0.90625 	0.5 	45.338
1.125 	-0.90625 	0.5 	45.4312
1.14062 	-0.90625 	0.5 	45.5092
1.15625 	-0.90625 	0.5 	45.5772
1.17188 	-0.90625 	0.5 	45.6438
1.1875 	-0.90625 	0.5 	45.7265
1.20312 	-0.90625 	0.5 	45.8152
1.21875 	-0.90625 	0.5 	45.8687
1.23438 	-0.90625 	0.5 	45.922
1.25 	-0.90625 	0.5 	45.9498
1.26562 	-0.90625 	0.5 	45.9816
1.28125 	-0.90625 	0.5 	46.0195
1.29688 	-0.90625 	0.5 	46.0405
1.3125 	-0.90625 	0.5 	46.0703
1.32812 	-0.90625 	0.5 	46.1216
1.34375 	-0.90625 	0.5 	46.1438
1.35938 	-0.90625 	0.5 	46.1559
1.375 	-0.90625 	0.5 	46.1832
1.39062 	-0.90625 	0.5 	46.1839
1.40625 	-0.90625 	0.5 	46.2138
1.42188 	-0.90625 	0.5 	46.1989
1.4375 	-0.90625 	0.5 	46.162
1.45312 	-0.90625 	0.5 	46.1506
1.46875 	-0.90625 	0.5 	46.1421
1.48438 	-0.90625 	0.5 	46.1285
-0.5 	-0.890625 	0.5 	48.9805
-0.484375 	-0.890625 	0.5 	48.9556
-0.46875 	-0.890625 	0.5 	48.9636
-0.453125 	-0.890625 	0.5 	48.9545
-0.4375 	-0.890625 	0.5 	48.9056
-0.421875 	-0.890625 	0.5 	48.8633
-0.40625 	-0.890625 	0.5 	48.8425
-0.390625 	-0.890625 	0.5 	48.7774
-0.375 	-0.890625 	0.5 	48.6883
-0.359375 	-0.890625 	0.5 	48.5601
-0.34375 	-0.890625 	0.5 	48.5252
-0.328125 	-0.890625 	0.5 	48.4019
-0.3125 	-0.890625 	0.5 	48.3474
-0.296875 	-0.890625 	0.5 	48.2667
-0.28125 	-0.890625 	0.5 	48.1836
-0.265625 	-0.890625 	0.5 	48.0844
-0.25 	-0.890625 	0.5 	47.939
-0.234375 	-0.890625 	0.5 	47.8083
-0.21875 	-0.890625 	0.5 	47.6691
-0.203125 	-0.890625 	0.5 	47.5245
-0.1875 	-0.890625 	0.5 	47.3541
-0.171875 	-0.890625 	0.5 	47.1992
-0.15625 	-0.890625 	0.5 	47.0257
-0.140625 	-0.890625 	0.5 	46.8537
-0.125 	-0.890625 	0.5 	46.6903
-0.109375 	-0.890625 	0.5 	46.5093
-0.09375 	-0.890625 	0.5 	46.3149
-0.078125 	-0.890625 	0.5 	46.1275
-0.0625 	-0.890625 	0.5 	45.9213
-0.046875 	-0.890625 	0.5 	45.7159
-0.03125 	-0.890625 	0.5 	45.4446
-0.015625 	-0.890625 	0.5 	45.2502
0 	-0.890625 	0.5 	45.0732
0.015625 	-0.890625 	0.5 	44.9025
0.03125 	-0.890625 	0.5 	44.6337
0.046875 	-0.890625 	0.5 	44.4083
0.0625 	-0.890625 	0.5 	44.215
0.078125 	-0.890625 	0.5 	44.0245
0.09375 	-0.890625 	0.5 	43.8476
0.109375 	-0.890625 	0.5 	43.6152
0.125 	-0.890625 	0.5 	43.4182
0.140625 	-0.890625 	0.5 	43.2174
0.15625 	-0.890625 	0.5 	42.9859
0.171875 	-0.890625 	0.5 	42.7944
0.1875 	-0.890625 	0.5 	42.6609
0.203125 	-0.890625 	0.5 	42.5125
0.21875 	-0.890625 	0.5 	42.3174
0.234375 	-0.890625 	0.5 	42.148
0.25 	-0.890625 	0.5 	41.9682
0.265625 	-0.890625 	0.5 	41.8371
0.28125 	-0.890625 	0.5 	41.6956
0.296875 	-0.890625 	0.5 	41.5885
0.3125 	-0.890625 	0.5 	41.5108
0.328125 	-0.890625 	0.5 	41.3808