-0.5 	-1 	0.5 	74.1705
-0.484375 	-1 	0.5 	74.371
-0.46875 	-1 	0.5 	74.7288
-0.453125 	-1 	0.5 	74.9597
-0.4375 	-1 	0.5 	75.2251
-0.421875 	-1 	0.5 	75.4758
-0.40625 	-1 	0.5 	75.7066
-0.390625 	-1 	0.5 	75.9766
-0.375 	-1 	0.5 	76.2508
-0.359375 	-1 	0.5 	76.5128
-0.34375 	-1 	0.5 	76.7411
-0.328125 	-1 	0.5 	77.0139
-0.3125 	-1 	0.5 	77.2145
-0.296875 	-1 	0.5 	77.4849
-0.28125 	-1 	0.5 	77.693
-0.265625 	-1 	0.5 	77.9009
-0.25 	-1 	0.5 	78.1441
-0.234375 	-1 	0.5 	78.3785
-0.21875 	-1 	0.5 	78.6457
-0.203125 	-1 	0.5 	78.853
-0.1875 	-1 	0.5 	79.0529
-0.171875 	-1 	0.5 	79.2329
-0.15625 	-1 	0.5 	79.4536
-0.140625 	-1 	0.5 	79.6624
-0.125 	-1 	0.5 	79.8698
-0.109375 	-1 	0.5 	80.0637
-0.09375 	-1 	0.5 	80.26
-0.078125 	-1 	0.5 	80.4564
-0.0625 	-1 	0.5 	80.6349
-0.046875 	-1 	0.5 	80.8052
-0.03125 	-1 	0.5 	80.9755
-0.015625 	-1 	0.5 	81.1569
0 	-1 	0.5 	81.3556
0.015625 	-1 	0.5 	81.5303
0.03125 	-1 	0.5 	81.6964
0.046875 	-1 	0.5 	81.817
0.0625 	-1 	0.5 	81.9618
0.078125 	-1 	0.5 	82.1316
0.09375 	-1 	0.5 	82.2699
0.109375 	-1 	0.5 	82.3848
0.125 	-1 	0.5 	82.5081
0.140625 	-1 	0.5 	82.6467
0.15625 	-1 	0.5 	82.7675
0.171875 	-1 	0.5 	82.8962
0.1875 	-1 	0.5 	83.0011
0.203125 	-1 	0.5 	83.0859
0.21875 	-1 	0.5 	83.1753
0.234375 	-1 	0.5 	83.2334
0.25 	-1 	0.5 	83.3455
0.265625 	-1 	0.5 	83.4164
0.28125 	-1 	0.5 	83.4204
0.296875 	-1 	0.5 	83.5385
0.3125 	-1 	0.5 	83.5963
0.328125 	-1 	0.5 	83.689
0.34375 	-1 	0.5 	83.6978
0.359375 	-1 	0.5 	83.761
0.375 	-1 	0.5 	83.7807
0.390625 	-1 	0.5 	83.859
0.40625 	-1 	0.5 	83.9267
0.421875 	-1 	0.5 	83.9226
0.4375 	-1 	0.5 	83.7729
0.453125 	-1 	0.5 	83.8426
0.46875 	-1 	0.5 	83.8683
0.484375 	-1 	0.5 	83.8812
0.5 	-1 	0.5 	83.8726
0.515625 	-1 	0.5 	83.8551
0.53125 	-1 	0.5 	83.8068
0.546875 	-1 	0.5 	83.767
0.5625 	-1 	0.5 	83.7411
0.578125 	-1 	0.5 	83.6646
0.59375 	-1 	0.5 	83.5305
0.609375 	-1 	0.5 	83.5272
0.625 	-1 	0.5 	83.4703
0.640625 	-1 	0.5 	83.3831
0.65625 	-1 	0.5 	83.3127
0.671875 	-1 	0.5 	83.2348
0.6875 	-1 	0.5 	83.1593
0.703125 	-1 	0.5 	83.029
0.71875 	-1 	0.5 	82.885
0.734375 	-1 	0.5 	82.7302
0.75 	-1 	0.5 	82.6141
0.765625 	-1 	0.5 	82.5074
0.78125 	-1 	0.5 	82.404
0.796875 	-1 	0.5 	82.2313
0.8125 	-1 	0.5 	82.1335
0.828125 	-1 	0.5 	81.957
0.84375 	-1 	0.5 	81.8048
0.859375 	-1 	0.5 	81.6332
0.875 	-1 	0.5 	81.429
0.890625 	-1 	0.5 	81.3145
0.90625 	-1 	0.5 	81.0902
0.921875 	-1 	0.5 	80.8949
0.9375 	-1 	0.5 	80.6548
0.953125 	-1 	0.5 	80.414
0.96875 	-1 	0.5 	80.1744
0.984375 	-1 	0.5 	80.0172
1 	-1 	0.5 	79.8711
1.01562 	-1 	0.5 	79.7011
1.03125 	-1 	0.5 	79.418
1.04688 	-1 	0.5 	79.1559
1.0625 	-1 	0.5 	78.9051
1.07812 	-1 	0.5 	78.7335
1.09375 	-1 	0.5 	78.4208
1.10938 	-1 	0.5 	78.166
1.125 	-1 	0.5 	77.9237
1.14062 	-1 	0.5 	77.6398
1.15625 	-1 	0.5 	77.4098
1.17188 	-1 	0.5 	77.1314
1.1875 	-1 	0.5 	76.8529
1.20312 	-1 	0.5 	76.612
1.21875 	-1 	0.5 	76.3713
1.23438 	-1 	0.5 	76.1306
1.25 	-1 	0.5 	75.8511
1.26562 	-1 	0.5 	75.6204
1.28125 	-1 	0.5 	75.3036
1.29688 	-1 	0.5 	75.0151
1.3125 	-1 	0.5 	74.7263
1.32812 	-1 	0.5 	74.4275
1.34375 	-1 	0.5 	74.1437
1.35938 	-1 	0.5 	73.8898
1.375 	-1 	0.5 	73.5831
1.39062 	-1 	0.5 	73.3224
1.40625 	-1 	0.5 	72.9815
1.42188 	-1 	0.5 	72.6702
1.4375 	-1 	0.5 	72.4406
1.45312 	-1 	0.5 	72.096
1.46875 	-1 	0.5 	71.9342
1.48438 	-1 	0.5 	71.6089
-0.5 	-0.984375 	0.5 	74.3026
-0.484375 	-0.984375 	0.5 	74.5669
-0.46875 	-0.984375 	0.5 	74.8183
-0.453125 	-0.984375 	0.5 	75.0649
-0.4375 	-0.984375 	0.5 	75.3115
-0.421875 	-0.984375 	0.5 	75.5716
-0.40625 	-0.984375 	0.5 	75.8793
-0.390625 	-0.984375 	0.5 	76.1013
-0.375 	-0.984375 	0.5 	76.3791
-0.359375 	-0.984375 	0.5 	76.654
-0.34375 	-0.984375 	0.5 	76.9211
-0.328125 	-0.984375 	0.5 	77.156
-0.3125 	-0.984375 	0.5 	77.3953
-0.296875 	-0.984375 	0.5 	77.6013
-0.28125 	-0.984375 	0.5 	77.8052
-0.265625 	-0.984375 	0.5 	78.1197
-0.25 	-0.984375 	0.5 	78.3574
-0.234375 	-0.984375 	0.5 	78.6351
-0.21875 	-0.984375 	0.5 	78.8838
-0.203125 	-0.984375 	0.5 	79.0865
-0.1875 	-0.984375 	0.5 	79.2865
-0.171875 	-0.984375 	0.5 	79.4799
-0.15625 	-0.984375 	0.5 	79.7172
-0.140625 	-0.984375 	0.5 	79.9357
-0.125 	-0.984375 	0.5 	80.1229
-0.109375 	-0.984375 	0.5 	80.3357
-0.09375 	-0.984375 	0.5 	80.5561
-0.078125 	-0.984375 	0.5 	80.7268
-0.0625 	-0.984375 	0.5 	80.9383
-0.046875 	-0.984375 	0.5 	81.1189
-0.03125 	-0.984375 	0.5 	81.2885
-0.015625 	-0.984375 	0.5 	81.4672
0 	-0.984375 	0.5 	81.611
0.015625 	-0.984375 	0.5 	81.7295
0.03125 	-0.984375 	0.5 	81.8919
0.046875 	-0.984375 	0.5 	82.0972
0.0625 	-0.984375 	0.5 	82.2563
0.078125 	-0.984375 	0.5 	82.4257
0.09375 	-0.984375 	0.5 	82.5905
0.109375 	-0.984375 	0.5 	82.7126
0.125 	-0.984375 	0.5 	82.8157
0.140625 	-0.984375 	0.5 	82.9495
0.15625 	-0.984375 	0.5 	83.0821
0.171875 	-0.984375 	0.5 	83.1916
0.1875 	-0.984375 	0.5 	83.2872
0.203125 	-0.984375 	0.5 	83.4383
0.21875 	-0.984375 	0.5 	83.4518
0.234375 	-0.984375 	0.5 	83.5808
0.25 	-0.984375 	0.5 	83.6918
0.265625 	-0.984375 	0.5 	83.6918
0.28125 	-0.984375 	0.5 	83.83
0.296875 	-0.984375 	0.5 	83.8837
0.3125 	-0.984375 	0.5 	83.9506
0.328125 	-0.984375 	0.5 	84.0267
0.34375 	-0.984375 	0.5 	84.0914
0.359375 	-0.984375 	0.5 	84.0509
0.375 	-0.984375 	0.5 	84.1373
0.390625 	-0.984375 	0.5 	84.1631
0.40625 	-0.984375 	0.5 	84.2154
0.421875 	-0.984375 	0.5 	84.2564
0.4375 	-0.984375 	0.5 	84.219
0.453125 	-0.984375 	0.5 	84.2144
0.46875 	-0.984375 	0.5 	84.2527
0.484375 	-0.984375 	0.5 	84.2087
0.5 	-0.984375 	0.5 	84.2143
0.515625 	-0.984375 	0.5 	84.1864
0.53125 	-0.984375 	0.5 	84.1518
0.546875 	-0.984375 	0.5 	84.113
0.5625 	-0.984375 	0.5 	84.0774
0.578125 	-0.984375 	0.5 	84.0218
0.59375 	-0.984375 	0.5 	83.9666
0.609375 	-0.984375 	0.5 	83.9049
0.625 	-0.984375 	0.5 	83.8142
0.640625 	-0.984375 	0.5 	83.7249
0.65625 	-0.984375 	0.5 	83.6653
0.671875 	-0.984375 	0.5 	83.6309
0.6875 	-0.984375 	0.5 	83.5043
0.703125 	-0.984375 	0.5 	83.3823
0.71875 	-0.984375 	0.5 	83.203
0.734375 	-0.984375 	0.5 	83.0712
0.75 	-0.984375 	0.5 	82.9911
0.765625 	-0.984375 	0.5 	82.8442
0.78125 	-0.984375 	0.5 	82.7002
0.796875 	-0.984375 	0.5 	82.5947
0.8125 	-0.984375 	0.5 	82.4614
0.828125 	-0.984375 	0.5 	82.3058
0.84375 	-0.984375 	0.5 	82.1204
0.859375 	-0.984375 	0.5 	81.9347
0.875 	-0.984375 	0.5 	81.7512
0.890625 	-0.984375 	0.5 	81.5521
0.90625 	-0.984375 	0.5 	81.3753
0.921875 	-0.984375 	0.5 	81.1952
0.9375 	-0.984375 	0.5 	80.9674
0.953125 	-0.984375 	0.5 	80.7173
0.96875 	-0.984375 	0.5 	80.4816
0.984375 	-0.984375 	0.5 	80.2653
1 	-0.984375 	0.5 	80.1214
1.01562 	-0.984375 	0.5 	79.9289
1.03125 	-0.984375 	0.5 	79.6442
1.04688 	-0.984375 	0.5 	79.3806
1.0625 	-0.984375 	0.5 	79.1282
1.07812 	-0.984375 	0.5 	78.9044
1.09375 	-0.984375 	0.5 	78.6356
1.10938 	-0.984375 	0.5 	78.3848
1.125 	-0.984375 	0.5 	78.1516
1.14062 	-0.984375 	0.5 	77.8976
1.15625 	-0.984375 	0.5 	77.637
1.17188 	-0.984375 	0.5 	77.3493
1.1875 	-0.984375 	0.5 	77.0626
1.20312 	-0.984375 	0.5 	76.8145
1.21875 	-0.984375 	0.5 	76.5511
1.23438 	-0.984375 	0.5 	76.2972
1.25 	-0.984375 	0.5 	76.0133
1.26562 	-0.984375 	0.5 	75.7333
1.28125 	-0.984375 	0.5 	75.4527
1.29688 	-0.984375 	0.5 	75.1615
1.3125 	-0.984375 	0.5 	74.872
1.32812 	-0.984375 	0.5 	74.5738
1.34375 	-0.984375 	0.5 	74.2737
1.35938 	-0.984375 	0.5 	74.015
1.375 	-0.984375 	0.5 	73.7005
1.39062 	-0.984375 	0.5 	73.3786
1.40625 	-0.984375 	0.5 	73.0874
1.42188 	-0.984375 	0.5 	72.8027
1.4375 	-0.984375 	0.5 	72.5181
1.45312 	-0.984375 	0.5 	72.2624
1.46875 	-0.984375 	0.5 	71.9938
1.48438 	-0.984375 	0.5 	71.7502
-0.5 	-0.96875 	0.5 	74.424
-0.484375 	-0.96875 	0.5 	74.6953
-0.46875 	-0.96875 	0.5 	75.0132
-0.453125 	-0.96875 	0.5 	75.2238
-0.4375 	-0.96875 	0.5 	75.4563
-0.421875 	-0.96875 	0.5 	75.7658
-0.40625 	-0.96875 	0.5 	76.0717
-0.390625 	-0.96875 	0.5 	76.3095
-0.375 	-0.96875 	0.5 	76.5209
-0.359375 	-0.96875 	0.5 	76.8064
-0.34375 	-0.96875 	0.5 	77.092
-0.328125 	-0.96875 	0.5 	77.336
-0.3125 	-0.96875 	0.5 	77.5993
-0.296875 	-0.96875 	0.5 	77.8203
-0.28125 	-0.96875 	0.5 	78.0412
-0.265625 	-0.96875 	0.5 	78.3513
-0.25 	-0.96875 	0.5 	78.5944
-0.234375 	-0.96875 	0.5 	78.868
-0.21875 	-0.96875 	0.5 	79.1263
-0.203125 	-0.96875 	0.5 	79.3305
-0.1875 	-0.96875 	0.5 	79.504
-0.171875 	-0.96875 	0.5 	79.7174
-0.15625 	-0.96875 	0.5 	79.9295
-0.140625 	-0.96875 	0.5 	80.1872
-0.125 	-0.96875 	0.5 	80.3819
-0.109375 	-0.96875 	0.5 	80.6101
-0.09375 	-0.96875 	0.5 	80.8154
-0.078125 	-0.96875 	0.5 	81.0002
-0.0625 	-0.96875 	0.5 	81.2157
-0.046875 	-0.96875 	0.5 	81.4139
-0.03125 	-0.96875 	0.5 	81.5911
-0.015625 	-0.96875 	0.5 	81.7659
0 	-0.96875 	0.5 	81.8286
0.015625 	-0.96875 	0.5 	82.0536
0.03125 	-0.96875 	0.5 	82.2021
0.046875 	-0.96875 	0.5 	82.4299
0.0625 	-0.96875 	0.5 	82.5765
0.078125 	-0.96875 	0.5 	82.7436
0.09375 	-0.96875 	0.5 	82.8746
0.109375 	-0.96875 	0.5 	83.0061
0.125 	-0.96875 	0.5 	83.1221
0.140625 	-0.96875 	0.5 	83.2587
0.15625 	-0.96875 	0.5 	83.3715
0.171875 	-0.96875 	0.5 	83.4871
0.1875 	-0.96875 	0.5 	83.6263
0.203125 	-0.96875 	0.5 	83.7648
0.21875 	-0.96875 	0.5 	83.8055
0.234375 	-0.96875 	0.5 	83.9311
0.25 	-0.96875 	0.5 	84.0425
0.265625 	-0.96875 	0.5 	84.1929
0.28125 	-0.96875 	0.5 	84.2385
0.296875 	-0.96875 	0.5 	84.2516
0.3125 	-0.96875 	0.5 	84.3073
0.328125 	-0.96875 	0.5 	84.3541
0.34375 	-0.96875 	0.5 	84.4313
0.359375 	-0.96875 	0.5 	84.4839
0.375 	-0.96875 	0.5 	84.4876
0.390625 	-0.96875 	0.5 	84.5372
0.40625 	-0.96875 	0.5 	84.5335
0.421875 	-0.96875 	0.5 	84.5902
0.4375 	-0.96875 	0.5 	84.5805
0.453125 	-0.96875 	0.5 	84.5757
0.46875 	-0.96875 	0.5 	84.6125
0.484375 	-0.96875 	0.5 	84.5967
0.5 	-0.96875 	0.5 	84.5707
0.515625 	-0.96875 	0.5 	84.5201
0.53125 	-0.96875 	0.5 	84.4946
0.546875 	-0.96875 	0.5 	84.4586
0.5625 	-0.96875 	0.5 	84.4141
0.578125 	-0.96875 	0.5 	84.4023
0.59375 	-0.96875 	0.5 	84.351
0.609375 	-0.96875 	0.5 	84.2802
0.625 	-0.96875 	0.5 	84.2052
0.640625 	-0.96875 	0.5 	84.0955
0.65625 	-0.96875 	0.5 	84.0182
0.671875 	-0.96875 	0.5 	83.932
0.6875 	-0.96875 	0.5 	83.8557
0.703125 	-0.96875 	0.5 	83.6983
0.71875 	-0.96875 	0.5 	83.5432
0.734375 	-0.96875 	0.5 	83.4306
0.75 	-0.96875 	0.5 	83.3132
0.765625 	-0.96875 	0.5 	83.1788
0.78125 	-0.96875 	0.5 	83.051
0.796875 	-0.96875 	0.5 	82.883
0.8125 	-0.96875 	0.5 	82.7229
0.828125 	-0.96875 	0.5 	82.5936
0.84375 	-0.96875 	0.5 	82.4342
0.859375 	-0.96875 	0.5 	82.24
0.875 	-0.96875 	0.5 	82.0587
0.890625 	-0.96875 	0.5 	81.8541
0.90625 	-0.96875 	0.5 	81.6301
0.921875 	-0.96875 	0.5 	81.475
0.9375 	-0.96875 	0.5 	81.2567
0.953125 	-0.96875 	0.5 	81.0393
0.96875 	-0.96875 	0.5 	80.8007
0.984375 	-0.96875 	0.5 	80.5915
1 	-0.96875 	0.5 	80.3566
1.01562 	-0.96875 	0.5 	80.1568
1.03125 	-0.96875 	0.5 	79.8845
1.04688 	-0.96875 	0.5 	79.6229
1.0625 	-0.96875 	0.5 	79.3824
1.07812 	-0.96875 	0.5 	79.1397
1.09375 	-0.96875 	0.5 	78.9085
1.10938 	-0.96875 	0.5 	78.6744
1.125 	-0.96875 	0.5 	78.4216
1.14062 	-0.96875 	0.5 	78.1363
1.15625 	-0.96875 	0.5 	77.8455
1.17188 	-0.96875 	0.5 	77.5747
1.1875 	-0.96875 	0.5 	77.2951
1.20312 	-0.96875 	0.5 	77.0366
1.21875 	-0.96875 	0.5 	76.7788
1.23438 	-0.96875 	0.5 	76.4643
1.25 	-0.96875 	0.5 	76.1404
1.26562 	-0.96875 	0.5 	75.8206
1.28125 	-0.96875 	0.5 	75.5792
1.29688 	-0.96875 	0.5 	75.303
1.3125 	-0.96875 	0.5 	75.0168
1.32812 	-0.96875 	0.5 	74.7158
1.34375 	-0.96875 	0.5 	74.4148
1.35938 	-0.96875 	0.5 	74.1161
1.375 	-0.96875 	0.5 	73.8165
1.39062 	-0.96875 	0.5 	73.5226
1.40625 	-0.96875 	0.5 	73.2451
1.42188 	-0.96875 	0.5 	72.9617
1.4375 	-0.96875 	0.5 	72.6708
1.45312 	-0.96875 	0.5 	72.38
1.46875 	-0.96875 	0.5 	72.0967
1.48438 	-0.96875 	0.5 	71.812
-0.5 	-0.953125 	0.5 	74.5559
-0.484375 	-0.953125 	0.5 	74.8249
-0.46875 	-0.953125 	0.5 	75.2133
-0.453125 	-0.953125 	0.5 	75.42
-0.4375 	-0.953125 	0.5 	75.6525
-0.421875 	-0.953125 	0.5 	75.958
-0.40625 	-0.953125 	0.5 	76.2656
-0.390625 	-0.953125 	0.5 	76.5277
-0.375 	-0.953125 	0.5 	76.8087
-0.359375 	-0.953125 	0.5 	77.0838
-0.34375 	-0.953125 	0.5 	77.2956
-0.328125 	-0.953125 	0.5 	77.6209
-0.3125 	-0.953125 	0.5 	77.7424
-0.296875 	-0.953125 	0.5 	77.8661
-0.28125 	-0.953125 	0.5 	78.233
-0.265625 	-0.953125 	0.5 	78.5926
-0.25 	-0.953125 	0.5 	78.8596
-0.234375 	-0.953125 	0.5 	79.1243
-0.21875 	-0.953125 	0.5 	79.3484
-0.203125 	-0.953125 	0.5 	79.6312
-0.1875 	-0.953125 	0.5 	79.7871
-0.171875 	-0.953125 	0.5 	79.9667
-0.15625 	-0.953125 	0.5 	80.1752
-0.140625 	-0.953125 	0.5 	80.4053
-0.125 	-0.953125 	0.5 	80.6303
-0.109375 	-0.953125 	0.5 	80.8527
-0.09375 	-0.953125 	0.5 	81.0703
-0.078125 	-0.953125 	0.5 	81.2847
-0.0625 	-0.953125 	0.5 	81.4983
-0.046875 	-0.953125 	0.5 	81.7066
-0.03125 	-0.953125 	0.5 	81.8839
-0.015625 	-0.953125 	0.5 	82.0549
0 	-0.953125 	0.5 	82.1466
0.015625 	-0.953125 	0.5 	82.3253
0.03125 	-0.953125 	0.5 	82.5151
0.046875 	-0.953125 	0.5 	82.6963
0.0625 	-0.953125 	0.5 	82.8799
0.078125 	-0.953125 	0.5 	83.0244
0.09375 	-0.953125 	0.5 	83.1586
0.109375 	-0.953125 	0.5 	83.279
0.125 	-0.953125 	0.5 	83.4681
0.140625 	-0.953125 	0.5 	83.5952
0.15625 	-0.953125 	0.5 	83.7078
0.171875 	-0.953125 	0.5 	83.8213
0.1875 	-0.953125 	0.5 	83.9649
0.203125 	-0.953125 	0.5 	84.0818
0.21875 	-0.953125 	0.5 	84.1563
0.234375 	-0.953125 	0.5 	84.1771
0.25 	-0.953125 	0.5 	84.3384
0.265625 	-0.953125 	0.5 	84.6034
0.28125 	-0.953125 	0.5 	84.6438
0.296875 	-0.953125 	0.5 	84.6121
0.3125 	-0.953125 	0.5 	84.6733
0.328125 	-0.953125 	0.5 	84.7364
0.34375 	-0.953125 	0.5 	84.8078
0.359375 	-0.953125 	0.5 	84.8367
0.375 	-0.953125 	0.5 	84.8447
0.390625 	-0.953125 	0.5 	84.8723
0.40625 	-0.953125 	0.5 	84.9354
0.421875 	-0.953125 	0.5 	84.9619
0.4375 	-0.953125 	0.5 	84.894
0.453125 	-0.953125 	0.5 	84.9162
0.46875 	-0.953125 	0.5 	84.962
0.484375 	-0.953125 	0.5 	85.0199
0.5 	-0.953125 	0.5 	84.9372
0.515625 	-0.953125 	0.5 	84.8638
0.53125 	-0.953125 	0.5 	84.7623
0.546875 	-0.953125 	0.5 	84.8016
0.5625 	-0.953125 	0.5 	84.796
0.578125 	-0.953125 	0.5 	84.7574
0.59375 	-0.953125 	0.5 	84.7189
0.609375 	-0.953125 	0.5 	84.6438
0.625 	-0.953125 	0.5 	84.5379
0.640625 	-0.953125 	0.5 	84.432
0.65625 	-0.953125 	0.5 	84.372
0.671875 	-0.953125 	0.5 	84.2494
0.6875 	-0.953125 	0.5 	84.1597
0.703125 	-0.953125 	0.5 	84.0374
0.71875 	-0.953125 	0.5 	83.9104
0.734375 	-0.953125 	0.5 	83.7692
0.75 	-0.953125 	0.5 	83.6504
0.765625 	-0.953125 	0.5 	83.5411
0.78125 	-0.953125 	0.5 	83.3911
0.796875 	-0.953125 	0.5 	83.182
0.8125 	-0.953125 	0.5 	83.0612
0.828125 	-0.953125 	0.5 	82.9219
0.84375 	-0.953125 	0.5 	82.7602
0.859375 	-0.953125 	0.5 	82.563
0.875 	-0.953125 	0.5 	82.351
0.890625 	-0.953125 	0.5 	82.1556
0.90625 	-0.953125 	0.5 	81.9733
0.921875 	-0.953125 	0.5 	81.7781
0.9375 	-0.953125 	0.5 	81.546
0.953125 	-0.953125 	0.5 	81.2992
0.96875 	-0.953125 	0.5 	81.1523
0.984375 	-0.953125 	0.5 	80.9214
1 	-0.953125 	0.5 	80.6714
1.01562 	-0.953125 	0.5 	80.4078
1.03125 	-0.953125 	0.5 	80.1407
1.04688 	-0.953125 	0.5 	79.8749
1.0625 	-0.953125 	0.5 	79.6588
1.07812 	-0.953125 	0.5 	79.4436
1.09375 	-0.953125 	0.5 	79.1851
1.10938 	-0.953125 	0.5 	78.9489
1.125 	-0.953125 	0.5 	78.6702
1.14062 	-0.953125 	0.5 	78.3394
1.15625 	-0.953125 	0.5 	78.0526
1.17188 	-0.953125 	0.5 	77.7763
1.1875 	-0.953125 	0.5 	77.5154
1.20312 	-0.953125 	0.5 	77.2598
1.21875 	-0.953125 	0.5 	76.9701
1.23438 	-0.953125 	0.5 	76.6033
1.25 	-0.953125 	0.5 	76.2911
1.26562 	-0.953125 	0.5 	75.9768
1.28125 	-0.953125 	0.5 	75.7131
1.29688 	-0.953125 	0.5 	75.4451
1.3125 	-0.953125 	0.5 	75.1535
1.32812 	-0.953125 	0.5 	74.8622
1.34375 	-0.953125 	0.5 	74.5414
1.35938 	-0.953125 	0.5 	74.2701
1.375 	-0.953125 	0.5 	73.9772
1.39062 	-0.953125 	0.5 	73.674
1.40625 	-0.953125 	0.5 	73.3944
1.42188 	-0.953125 	0.5 	73.1099
1.4375 	-0.953125 	0.5 	72.7935
1.45312 	-0.953125 	0.5 	72.4325
1.46875 	-0.953125 	0.5 	72.1462
1.48438 	-0.953125 	0.5 	71.8962
-0.5 	-0.9375 	0.5 	74.6854
-0.484375 	-0.9375 	0.5 	74.9834
-0.46875 	-0.9375 	0.5 	75.2713
-0.453125 	-0.9375 	0.5 	75.4794
-0.4375 	-0.9375 	0.5 	75.8323
-0.421875 	-0.9375 	0.5 	76.1364
-0.40625 	-0.9375 	0.5 	76.448
-0.390625 	-0.9375 	0.5 	76.7196
-0.375 	-0.9375 	0.5 	77.0086
-0.359375 	-0.9375 	0.5 	77.2898
-0.34375 	-0.9375 	0.5 	77.4737
-0.328125 	-0.9375 	0.5 	77.8953
-0.3125 	-0.9375 	0.5 	78.0563
-0.296875 	-0.9375 	0.5 	78.2628
-0.28125 	-0.9375 	0.5 	78.5662
-0.265625 	-0.9375 	0.5 	78.8307
-0.25 	-0.9375 	0.5 	79.0965
-0.234375 	-0.9375 	0.5 	79.3226
-0.21875 	-0.9375 	0.5 	79.5704
-0.203125 	-0.9375 	0.5 	79.838
-0.1875 	-0.9375 	0.5 	79.9933
-0.171875 	-0.9375 	0.5 	80.2343
-0.15625 	-0.9375 	0.5 	80.4434
-0.140625 	-0.9375 	0.5 	80.6766
-0.125 	-0.9375 	0.5 	80.9439
-0.109375 	-0.9375 	0.5 	81.1563
-0.09375 	-0.9375 	0.5 	81.3337
-0.078125 	-0.9375 	0.5 	81.5176
-0.0625 	-0.9375 	0.5 	81.7434
-0.046875 	-0.9375 	0.5 	81.9432
-0.03125 	-0.9375 	0.5 	82.1057
-0.015625 	-0.9375 	0.5 	82.3011
0 	-0.9375 	0.5 	82.4967
0.015625 	-0.9375 	0.5 	82.6606
0.03125 	-0.9375 	0.5 	82.8155
0.046875 	-0.9375 	0.5 	83.0033
0.0625 	-0.9375 	0.5 	83.2055
0.078125 	-0.9375 	0.5 	83.4757
0.09375 	-0.9375 	0.5 	83.4832
0.109375 	-0.9375 	0.5 	83.6165
0.125 	-0.9375 	0.5 	83.7791
0.140625 	-0.9375 	0.5 	83.9316
0.15625 	-0.9375 	0.5 	84.0472
0.171875 	-0.9375 	0.5 	84.1601
0.1875 	-0.9375 	0.5 	84.2968
0.203125 	-0.9375 	0.5 	84.4629
0.21875 	-0.9375 	0.5 	84.4707
0.234375 	-0.9375 	0.5 	84.5445
0.25 	-0.9375 	0.5 	84.6483
0.265625 	-0.9375 	0.5 	84.7847
0.28125 	-0.9375 	0.5 	84.9683
0.296875 	-0.9375 	0.5 	84.9783
0.3125 	-0.9375 	0.5 	85.0361
0.328125 	-0.9375 	0.5 	85.0811
0.34375 	-0.9375 	0.5 	85.1455
0.359375 	-0.9375 	0.5 	85.1841
0.375 	-0.9375 	0.5 	85.2876
0.390625 	-0.9375 	0.5 	85.3
0.40625 	-0.9375 	0.5 	85.2819
0.421875 	-0.9375 	0.5 	85.2721
0.4375 	-0.9375 	0.5 	85.2687
0.453125 	-0.9375 	0.5 	85.2779
0.46875 	-0.9375 	0.5 	85.3427
0.484375 	-0.9375 	0.5 	85.3689
0.5 	-0.9375 	0.5 	85.3388
0.515625 	-0.9375 	0.5 	85.229
0.53125 	-0.9375 	0.5 	85.1815
0.546875 	-0.9375 	0.5 	85.1963
0.5625 	-0.9375 	0.5 	85.1757
0.578125 	-0.9375 	0.5 	85.1506
0.59375 	-0.9375 	0.5 	85.0957
0.609375 	-0.9375 	0.5 	84.9173
0.625 	-0.9375 	0.5 	84.8681
0.640625 	-0.9375 	0.5 	84.7811
0.65625 	-0.9375 	0.5 	84.7738
0.671875 	-0.9375 	0.5 	84.5961
0.6875 	-0.9375 	0.5 	84.4938
0.703125 	-0.9375 	0.5 	84.4048
0.71875 	-0.9375 	0.5 	84.2765
0.734375 	-0.9375 	0.5 	84.1393
0.75 	-0.9375 	0.5 	84.012
0.765625 	-0.9375 	0.5 	83.8692
0.78125 	-0.9375 	0.5 	83.7276
0.796875 	-0.9375 	0.5 	83.5665
0.8125 	-0.9375 	0.5 	83.3964
0.828125 	-0.9375 	0.5 	83.2406
0.84375 	-0.9375 	0.5 	83.0837
0.859375 	-0.9375 	0.5 	82.888
0.875 	-0.9375 	0.5 	82.6744
0.890625 	-0.9375 	0.5 	82.4764
0.90625 	-0.9375 	0.5 	82.2451
0.921875 	-0.9375 	0.5 	82.0264
0.9375 	-0.9375 	0.5 	81.8318
0.953125 	-0.9375 	0.5 	81.632
0.96875 	-0.9375 	0.5 	81.4338
0.984375 	-0.9375 	0.5 	81.2187
1 	-0.9375 	0.5 	80.9301
1.01562 	-0.9375 	0.5 	80.6758
1.03125 	-0.9375 	0.5 	80.3811
1.04688 	-0.9375 	0.5 	80.1138
1.0625 	-0.9375 	0.5 	79.9055
1.07812 	-0.9375 	0.5 	79.6631
1.09375 	-0.9375 	0.5 	79.4487
1.10938 	-0.9375 	0.5 	79.1599
1.125 	-0.9375 	0.5 	78.875
1.14062 	-0.9375 	0.5 	78.5723
1.15625 	-0.9375 	0.5 	78.2588
1.17188 	-0.9375 	0.5 	77.9856
1.1875 	-0.9375 	0.5 	77.7296
1.20312 	-0.9375 	0.5 	77.4449
1.21875 	-0.9375 	0.5 	77.1257
1.23438 	-0.9375 	0.5 	76.7867
1.25 	-0.9375 	0.5 	76.4839
1.26562 	-0.9375 	0.5 	76.1869
1.28125 	-0.9375 	0.5 	75.8947
1.29688 	-0.9375 	0.5 	75.5936
1.3125 	-0.9375 	0.5 	75.2815
1.32812 	-0.9375 	0.5 	74.9669
1.34375 	-0.9375 	0.5 	74.6513
1.35938 	-0.9375 	0.5 	74.3988
1.375 	-0.9375 	0.5 	74.1157
1.39062 	-0.9375 	0.5 	73.8316
1.40625 	-0.9375 	0.5 	73.5418
1.42188 	-0.9375 	0.5 	73.1353
1.4375 	-0.9375 	0.5 	72.7435
1.45312 	-0.9375 	0.5 	72.509
1.46875 	-0.9375 	0.5 	72.1896
1.48438 	-0.9375 	0.5 	71.9294
-0.5 	-0.921875 	0.5 	74.8084
-0.484375 	-0.921875 	0.5 	75.082
-0.46875 	-0.921875 	0.5 	75.2742
-0.453125 	-0.921875 	0.5 	75.474
-0.4375 	-0.921875 	0.5 	75.9778
-0.421875 	-0.921875 	0.5 	76.3111
-0.40625 	-0.921875 	0.5 	76.5958
-0.390625 	-0.921875 	0.5 	76.8429
-0.375 	-0.921875 	0.5 	77.1323
-0.359375 	-0.921875 	0.5 	77.4214
-0.34375 	-0.921875 	0.5 	77.7198
-0.328125 	-0.921875 	0.5 	77.9355
-0.3125 	-0.921875 	0.5 	78.1827
-0.296875 	-0.921875 	0.5 	78.4815
-0.28125 	-0.921875 	0.5 	78.8055
-0.265625 	-0.921875 	0.5 	79.0648
-0.25 	-0.921875 	0.5 	79.3707
-0.234375 	-0.921875 	0.5 	79.5814
-0.21875 	-0.921875 	0.5 	79.7821
-0.203125 	-0.921875 	0.5 	80.0012
-0.1875 	-0.921875 	0.5 	80.2322
-0.171875 	-0.921875 	0.5 	80.4715
-0.15625 	-0.921875 	0.5 	80.7138
-0.140625 	-0.921875 	0.5 	80.9595
-0.125 	-0.921875 	0.5 	81.2049
-0.109375 	-0.921875 	0.5 	81.4081
-0.09375 	-0.921875 	0.5 	81.5954
-0.078125 	-0.921875 	0.5 	81.8168
-0.0625 	-0.921875 	0.5 	82.0169
-0.046875 	-0.921875 	0.5 	82.1653
-0.03125 	-0.921875 	0.5 	82.4082
-0.015625 	-0.921875 	0.5 	82.6079
0 	-0.921875 	0.5 	82.8762
0.015625 	-0.921875 	0.5 	83.0161
0.03125 	-0.921875 	0.5 	83.1506
0.046875 	-0.921875 	0.5 	83.3319
0.0625 	-0.921875 	0.5 	83.5395
0.078125 	-0.921875 	0.5 	83.6515
0.09375 	-0.921875 	0.5 	83.802
0.109375 	-0.921875 	0.5 	83.9792
0.125 	-0.921875 	0.5 	84.12
0.140625 	-0.921875 	0.5 	84.2821
0.15625 	-0.921875 	0.5 	84.3618
0.171875 	-0.921875 	0.5 	84.5081
0.1875 	-0.921875 	0.5 	84.6356
0.203125 	-0.921875 	0.5 	84.7948
0.21875 	-0.921875 	0.5 	84.9328
0.234375 	-0.921875 	0.5 	84.9722
0.25 	-0.921875 	0.5 	85.0115
0.265625 	-0.921875 	0.5 	85.0696
0.28125 	-0.921875 	0.5 	85.1428
0.296875 	-0.921875 	0.5 	85.3074
0.3125 	-0.921875 	0.5 	85.368
0.328125 	-0.921875 	0.5 	85.446
0.34375 	-0.921875 	0.5 	85.5784
0.359375 	-0.921875 	0.5 	85.5862
0.375 	-0.921875 	0.5 	85.6365
0.390625 	-0.921875 	0.5 	85.6651
0.40625 	-0.921875 	0.5 	85.6872
0.421875 	-0.921875 	0.5 	85.6236
0.4375 	-0.921875 	0.5 	85.6567
0.453125 	-0.921875 	0.5 	85.6788
0.46875 	-0.921875 	0.5 	85.7176
0.484375 	-0.921875 	0.5 	85.7414
0.5 	-0.921875 	0.5 	85.7188
0.515625 	-0.921875 	0.5 	85.6382
0.53125 	-0.921875 	0.5 	85.5881
0.546875 	-0.921875 	0.5 	85.6039
0.5625 	-0.921875 	0.5 	85.5657
0.578125 	-0.921875 	0.5 	85.5102
0.59375 	-0.921875 	0.5 	85.4438
0.609375 	-0.921875 	0.5 	85.2248
0.625 	-0.921875 	0.5 	85.1935
0.640625 	-0.921875 	0.5 	85.1565
0.65625 	-0.921875 	0.5 	85.0964
0.671875 	-0.921875 	0.5 	84.9756
0.6875 	-0.921875 	0.5 	84.884
0.703125 	-0.921875 	0.5 	84.803
0.71875 	-0.921875 	0.5 	84.6191
0.734375 	-0.921875 	0.5 	84.5301
0.75 	-0.921875 	0.5 	84.3812
0.765625 	-0.921875 	0.5 	84.2332
0.78125 	-0.921875 	0.5 	84.0492
0.796875 	-0.921875 	0.5 	83.8851
0.8125 	-0.921875 	0.5 	83.7283
0.828125 	-0.921875 	0.5 	83.6101
0.84375 	-0.921875 	0.5 	83.3947
0.859375 	-0.921875 	0.5 	83.2039
0.875 	-0.921875 	0.5 	82.9891
0.890625 	-0.921875 	0.5 	82.7619
0.90625 	-0.921875 	0.5 	82.469
0.921875 	-0.921875 	0.5 	82.2973
0.9375 	-0.921875 	0.5 	82.1188
0.953125 	-0.921875 	0.5 	81.9081
0.96875 	-0.921875 	0.5 	81.7223
0.984375 	-0.921875 	0.5 	81.5427
1 	-0.921875 	0.5 	81.2342
1.01562 	-0.921875 	0.5 	80.9515
1.03125 	-0.921875 	0.5 	80.6637
1.04688 	-0.921875 	0.5 	80.3794
1.0625 	-0.921875 	0.5 	80.1425
1.07812 	-0.921875 	0.5 	79.9566
1.09375 	-0.921875 	0.5 	79.6805
1.10938 	-0.921875 	0.5 	79.2813
1.125 	-0.921875 	0.5 	79.033
1.14062 	-0.921875 	0.5 	78.7033
1.15625 	-0.921875 	0.5 	78.4446
1.17188 	-0.921875 	0.5 	78.1913
1.1875 	-0.921875 	0.5 	77.9053
1.20312 	-0.921875 	0.5 	77.6215
1.21875 	-0.921875 	0.5 	77.3032
1.23438 	-0.921875 	0.5 	76.9887
1.25 	-0.921875 	0.5 	76.6507
1.26562 	-0.921875 	0.5 	76.3425
1.28125 	-0.921875 	0.5 	76.0401
1.29688 	-0.921875 	0.5 	75.7412
1.3125 	-0.921875 	0.5 	75.4333
1.32812 	-0.921875 	0.5 	75.0977
1.34375 	-0.921875 	0.5 	74.7762
1.35938 	-0.921875 	0.5 	74.488
1.375 	-0.921875 	0.5 	74.1984
1.39062 	-0.921875 	0.5 	73.9163
1.40625 	-0.921875 	0.5 	73.5837
1.42188 	-0.921875 	0.5 	73.2373
1.4375 	-0.921875 	0.5 	72.8368
1.45312 	-0.921875 	0.5 	72.5582
1.46875 	-0.921875 	0.5 	72.2577
1.48438 	-0.921875 	0.5 	71.9695
-0.5 	-0.90625 	0.5 	74.9384
-0.484375 	-0.90625 	0.5 	75.2044
-0.46875 	-0.90625 	0.5 	75.4738
-0.453125 	-0.90625 	0.5 	75.8416
-0.4375 	-0.90625 	0.5 	76.1083
-0.421875 	-0.90625 	0.5 	76.4905
-0.40625 	-0.90625 	0.5 	76.7387
-0.390625 	-0.90625 	0.5 	77.0147
-0.375 	-0.90625 	0.5 	77.2906
-0.359375 	-0.90625 	0.5 	77.5511
-0.34375 	-0.90625 	0.5 	77.8412
-0.328125 	-0.90625 	0.5 	78.0925
-0.3125 	-0.90625 	0.5 	78.3816
-0.296875 	-0.90625 	0.5 	78.6308
-0.28125 	-0.90625 	0.5 	78.9722
-0.265625 	-0.90625 	0.5 	79.299
-0.25 	-0.90625 	0.5 	79.5599
-0.234375 	-0.90625 	0.5 	79.7703
-0.21875 	-0.90625 	0.5 	79.9887
-0.203125 	-0.90625 	0.5 	80.2341
-0.1875 	-0.90625 	0.5 	80.3843
-0.171875 	-0.90625 	0.5 	80.6408
-0.15625 	-0.90625 	0.5 	81.0367
-0.140625 	-0.90625 	0.5 	81.2855
-0.125 	-0.90625 	0.5 	81.4801
-0.109375 	-0.90625 	0.5 	81.6823
-0.09375 	-0.90625 	0.5 	81.8803
-0.078125 	-0.90625 	0.5 	82.0782
-0.0625 	-0.90625 	0.5 	82.2813
-0.046875 	-0.90625 	0.5 	82.4852
-0.03125 	-0.90625 	0.5 	82.6701
-0.015625 	-0.90625 	0.5 	82.9185
0 	-0.90625 	0.5 	83.11
0.015625 	-0.90625 	0.5 	83.3345
0.03125 	-0.90625 	0.5 	83.6162
0.046875 	-0.90625 	0.5 	83.7644
0.0625 	-0.90625 	0.5 	83.8272
0.078125 	-0.90625 	0.5 	83.9281
0.09375 	-0.90625 	0.5 	84.1057
0.109375 	-0.90625 	0.5 	84.283
0.125 	-0.90625 	0.5 	84.442
0.140625 	-0.90625 	0.5 	84.6014
0.15625 	-0.90625 	0.5 	84.7274
0.171875 	-0.90625 	0.5 	84.8441
0.1875 	-0.90625 	0.5 	84.9775
0.203125 	-0.90625 	0.5 	85.1273
0.21875 	-0.90625 	0.5 	85.2959
0.234375 	-0.90625 	0.5 	85.4267
0.25 	-0.90625 	0.5 	85.4773
0.265625 	-0.90625 	0.5 	85.3688
0.28125 	-0.90625 	0.5 	85.5055
0.296875 	-0.90625 	0.5 	85.6303
0.3125 	-0.90625 	0.5 	85.7266
0.328125 	-0.90625 	0.5 	85.8241
0.34375 	-0.90625 	0.5 	85.8901
0.359375 	-0.90625 	0.5 	85.9823
0.375 	-0.90625 	0.5 	85.9822
0.390625 	-0.90625 	0.5 	86.0093
0.40625 	-0.90625 	0.5 	86.0403
0.421875 	-0.90625 	0.5 	86.0516
0.4375 	-0.90625 	0.5 	86.1025
0.453125 	-0.90625 	0.5 	86.1125
0.46875 	-0.90625 	0.5 	86.0783
0.484375 	-0.90625 	0.5 	86.0277
0.5 	-0.90625 	0.5 	86.0139
0.515625 	-0.90625 	0.5 	86.0495
0.53125 	-0.90625 	0.5 	85.9938
0.546875 	-0.90625 	0.5 	86.0075
0.5625 	-0.90625 	0.5 	85.9536
0.578125 	-0.90625 	0.5 	85.8654
0.59375 	-0.90625 	0.5 	85.7851
0.609375 	-0.90625 	0.5 	85.7493
0.625 	-0.90625 	0.5 	85.6691
0.640625 	-0.90625 	0.5 	85.5157
0.65625 	-0.90625 	0.5 	85.3784
0.671875 	-0.90625 	0.5 	85.2908
0.6875 	-0.90625 	0.5 	85.3836
0.703125 	-0.90625 	0.5 	85.2201
0.71875 	-0.90625 	0.5 	85.0422
0.734375 	-0.90625 	0.5 	84.8963
0.75 	-0.90625 	0.5 	84.7443
0.765625 	-0.90625 	0.5 	84.6112
0.78125 	-0.90625 	0.5 	84.3754
0.796875 	-0.90625 	0.5 	84.2228
0.8125 	-0.90625 	0.5 	84.0764
0.828125 	-0.90625 	0.5 	83.9199
0.84375 	-0.90625 	0.5 	83.7169
0.859375 	-0.90625 	0.5 	83.5242
0.875 	-0.90625 	0.5 	83.2962
0.890625 	-0.90625 	0.5 	83.1451
0.90625 	-0.90625 	0.5 	82.8988
0.921875 	-0.90625 	0.5 	82.6524
0.9375 	-0.90625 	0.5 	82.4077
0.953125 	-0.90625 	0.5 	82.2026
0.96875 	-0.90625 	0.5 	82.0228
0.984375 	-0.90625 	0.5 	81.7813
1 	-0.90625 	0.5 	81.5383
1.01562 	-0.90625 	0.5 	81.2488
1.03125 	-0.90625 	0.5 	80.9577
1.04688 	-0.90625 	0.5 	80.6809
1.0625 	-0.90625 	0.5 	80.4045
1.07812 	-0.90625 	0.5 	80.1361
1.09375 	-0.90625 	0.5 	79.844
1.10938 	-0.90625 	0.5 	79.4387
1.125 	-0.90625 	0.5 	79.2512
1.14062 	-0.90625 	0.5 	78.916
1.15625 	-0.90625 	0.5 	78.6983
1.17188 	-0.90625 	0.5 	78.3949
1.1875 	-0.90625 	0.5 	78.117
1.20312 	-0.90625 	0.5 	77.8181
1.21875 	-0.90625 	0.5 	77.4893
1.23438 	-0.90625 	0.5 	77.1483
1.25 	-0.90625 	0.5 	76.8187
1.26562 	-0.90625 	0.5 	76.5121
1.28125 	-0.90625 	0.5 	76.1986
1.29688 	-0.90625 	0.5 	75.8839
1.3125 	-0.90625 	0.5 	75.567
1.32812 	-0.90625 	0.5 	75.2483
1.34375 	-0.90625 	0.5 	74.9181
1.35938 	-0.90625 	0.5 	74.5867
1.375 	-0.90625 	0.5 	74.2904
1.39062 	-0.90625 	0.5 	74.0157
1.40625 	-0.90625 	0.5 	73.635
1.42188 	-0.90625 	0.5 	73.2887
1.4375 	-0.90625 	0.5 	72.9469
1.45312 	-0.90625 	0.5 	72.6516
1.46875 	-0.90625 	0.5 	72.3724
1.48438 	-0.90625 	0.5 	72.0802
-0.5 	-0.890625 	0.5 	75.0647
-0.484375 	-0.890625 	0.5 	75.4117
-0.46875 	-0.890625 	0.5 	75.5203
-0.453125 	-0.890625 	0.5 	75.9033
-0.4375 	-0.890625 	0.5 	76.3513
-0.421875 	-0.890625 	0.5 	76.6474
-0.40625 	-0.890625 	0.5 	76.8647
-0.390625 	-0.890625 	0.5 	77.0809
-0.375 	-0.890625 	0.5 	77.4144
-0.359375 	-0.890625 	0.5 	77.7303
-0.34375 	-0.890625 	0.5 	78.0229
-0.328125 	-0.890625 	0.5 	78.2717
-0.3125 	-0.890625 	0.5 	78.589
-0.296875 	-0.890625 	0.5 	78.9175
-0.28125 	-0.890625 	0.5 	79.2301
-0.265625 	-0.890625 	0.5 	79.5324
-0.25 	-0.890625 	0.5 	79.7617
-0.234375 	-0.890625 	0.5 	79.9622
-0.21875 	-0.890625 	0.5 	80.2306
-0.203125 	-0.890625 	0.5 	80.4666
-0.1875 	-0.890625 	0.5 	80.6867
-0.171875 	-0.890625 	0.5 	80.8707
-0.15625 	-0.890625 	0.5 	81.2489
-0.140625 	-0.890625 	0.5 	81.4695
-0.125 	-0.890625 	0.5 	81.7618
-0.109375 	-0.890625 	0.5 	81.9913
-0.09375 	-0.890625 	0.5 	82.139
-0.078125 	-0.890625 	0.5 	82.4254
-0.0625 	-0.890625 	0.5 	82.6422
-0.046875 	-0.890625 	0.5 	82.7754
-0.03125 	-0.890625 	0.5 	83.0049
-0.015625 	-0.890625 	0.5 	83.1949
0 	-0.890625 	0.5 	83.4053
0.015625 	-0.890625 	0.5 	83.627
0.03125 	-0.890625 	0.5 	83.9434
0.046875 	-0.890625 	0.5 	84.0552
0.0625 	-0.890625 	0.5 	84.1571
0.078125 	-0.890625 	0.5 	84.3351
0.09375 	-0.890625 	0.5 	84.4573
0.109375 	-0.890625 	0.5 	84.6358
0.125 	-0.890625 	0.5 	84.8179
0.140625 	-0.890625 	0.5 	84.9667
0.15625 	-0.890625 	0.5 	85.0907
0.171875 	-0.890625 	0.5 	85.2089
0.1875 	-0.890625 	0.5 	85.3284
0.203125 	-0.890625 	0.5 	85.4532
0.21875 	-0.890625 	0.5 	85.5989
0.234375 	-0.890625 	0.5 	85.7503
0.25 	-0.890625 	0.5 	85.885
0.265625 	-0.890625 	0.5 	85.8163
0.28125 	-0.890625 	0.5 	85.92
0.296875 	-0.890625 	0.5 	86.0295
0.3125 	-0.890625 	0.5 	86.1374
0.328125 	-0.890625 	0.5 	86.1576