-0.5 	-1 	0.5 	39.3833 	0.394855 	-7.00455e-20
-0.484375 	-1 	0.5 	39.3769 	0.392582 	-6.3169e-19
-0.46875 	-1 	0.5 	39.3709 	0.387095 	1.61011e-19
-0.453125 	-1 	0.5 	39.3645 	0.383673 	5.74057e-20
-0.4375 	-1 	0.5 	39.3579 	0.379908 	-1.37809e-20
-0.421875 	-1 	0.5 	39.3514 	0.376318 	-8.2055e-20
-0.40625 	-1 	0.5 	39.3451 	0.372964 	-1.46397e-19
-0.390625 	-1 	0.5 	39.3388 	0.368392 	-1.06878e-19
-0.375 	-1 	0.5 	39.3326 	0.363441 	-5.59511e-20
-0.359375 	-1 	0.5 	39.3264 	0.358474 	-4.94626e-21
-0.34375 	-1 	0.5 	39.3203 	0.353545 	6.85477e-20
-0.328125 	-1 	0.5 	39.3138 	0.350557 	5.94195e-19
-0.3125 	-1 	0.5 	39.3093 	0.344505 	-5.29967e-19
-0.296875 	-1 	0.5 	39.3037 	0.34014 	-1.76517e-18
-0.28125 	-1 	0.5 	39.2976 	0.334763 	-9.47444e-19
-0.265625 	-1 	0.5 	39.2915 	0.329425 	-1.61695e-19
-0.25 	-1 	0.5 	39.2854 	0.32406 	2.23053e-19
-0.234375 	-1 	0.5 	39.2795 	0.318607 	8.02124e-19
-0.21875 	-1 	0.5 	39.2729 	0.313468 	5.46248e-19
-0.203125 	-1 	0.5 	39.2681 	0.307735 	1.1218e-18
-0.1875 	-1 	0.5 	39.2631 	0.30105 	7.38818e-19
-0.171875 	-1 	0.5 	39.2585 	0.294336 	-1.29728e-19
-0.15625 	-1 	0.5 	39.2532 	0.287998 	3.72228e-19
-0.140625 	-1 	0.5 	39.2482 	0.28216 	1.59876e-19
-0.125 	-1 	0.5 	39.2434 	0.276547 	-2.05074e-19
-0.109375 	-1 	0.5 	39.2388 	0.270194 	-7.61809e-19
-0.09375 	-1 	0.5 	39.2341 	0.262825 	-4.82771e-19
-0.078125 	-1 	0.5 	39.2293 	0.255456 	-2.03732e-19
-0.0625 	-1 	0.5 	39.225 	0.248224 	4.06433e-20
-0.046875 	-1 	0.5 	39.2209 	0.24109 	2.79976e-20
-0.03125 	-1 	0.5 	39.2167 	0.233956 	1.53519e-20
-0.015625 	-1 	0.5 	39.2122 	0.226912 	-2.27455e-21
0 	-1 	0.5 	39.2077 	0.220165 	3.78086e-19
0.015625 	-1 	0.5 	39.2038 	0.213068 	7.09892e-19
0.03125 	-1 	0.5 	39.1999 	0.205946 	9.09895e-19
0.046875 	-1 	0.5 	39.1965 	0.198684 	4.10684e-19
0.0625 	-1 	0.5 	39.1933 	0.191256 	-5.01759e-19
0.078125 	-1 	0.5 	39.1894 	0.183855 	-8.26702e-19
0.09375 	-1 	0.5 	39.1856 	0.176293 	8.42573e-20
0.109375 	-1 	0.5 	39.183 	0.168103 	-1.14587e-20
0.125 	-1 	0.5 	39.1805 	0.15966 	5.60181e-21
0.140625 	-1 	0.5 	39.1774 	0.151679 	8.41686e-20
0.15625 	-1 	0.5 	39.1746 	0.143597 	3.30859e-19
0.171875 	-1 	0.5 	39.1719 	0.13483 	4.81669e-19
0.1875 	-1 	0.5 	39.1695 	0.126957 	3.67339e-19
0.203125 	-1 	0.5 	39.1675 	0.119212 	4.01676e-20
0.21875 	-1 	0.5 	39.1653 	0.111253 	-1.00543e-19
0.234375 	-1 	0.5 	39.1639 	0.10311 	-2.10359e-20
0.25 	-1 	0.5 	39.1612 	0.0952134 	-5.46939e-20
0.265625 	-1 	0.5 	39.1593 	0.0864915 	-2.51008e-19
0.28125 	-1 	0.5 	39.1586 	0.0775682 	-4.10526e-21
0.296875 	-1 	0.5 	39.1573 	0.0698029 	1.5373e-20
0.3125 	-1 	0.5 	39.1553 	0.060484 	2.07478e-21
0.328125 	-1 	0.5 	39.1532 	0.0510849 	3.8232e-20
0.34375 	-1 	0.5 	39.1526 	0.0412723 	-2.20282e-19
0.359375 	-1 	0.5 	39.1522 	0.0335625 	-9.41987e-20
0.375 	-1 	0.5 	39.1523 	0.0255628 	-1.58876e-19
0.390625 	-1 	0.5 	39.1513 	0.0169767 	1.94971e-19
0.40625 	-1 	0.5 	39.1509 	0.00890382 	-3.85942e-19
0.421875 	-1 	0.5 	39.1504 	-0.000109413 	-1.29966e-19
0.4375 	-1 	0.5 	39.1521 	-0.00835661 	5.54291e-19
0.453125 	-1 	0.5 	39.1519 	-0.0178082 	8.28181e-20
0.46875 	-1 	0.5 	39.1522 	-0.0268029 	-1.61027e-19
0.484375 	-1 	0.5 	39.1524 	-0.035769 	-4.15107e-19
0.5 	-1 	0.5 	39.1532 	-0.0446054 	-2.38913e-19
0.515625 	-1 	0.5 	39.1542 	-0.0526861 	-1.38161e-20
0.53125 	-1 	0.5 	39.1558 	-0.0614645 	-2.24682e-20
0.546875 	-1 	0.5 	39.1572 	-0.0700734 	-3.05728e-19
0.5625 	-1 	0.5 	39.1584 	-0.0784538 	-1.25497e-18
0.578125 	-1 	0.5 	39.1597 	-0.0884343 	-4.61206e-19
0.59375 	-1 	0.5 	39.1619 	-0.0976868 	-1.23107e-18
0.609375 	-1 	0.5 	39.1635 	-0.105156 	-1.06764e-19
0.625 	-1 	0.5 	39.1654 	-0.113569 	-1.61521e-19
0.640625 	-1 	0.5 	39.168 	-0.122272 	-2.18905e-19
0.65625 	-1 	0.5 	39.1704 	-0.131266 	-2.37937e-19
0.671875 	-1 	0.5 	39.1726 	-0.140094 	-1.77989e-19
0.6875 	-1 	0.5 	39.1749 	-0.148986 	9.88769e-20
0.703125 	-1 	0.5 	39.178 	-0.157099 	7.36849e-19
0.71875 	-1 	0.5 	39.1819 	-0.165673 	3.84444e-19
0.734375 	-1 	0.5 	39.186 	-0.174159 	1.35006e-20
0.75 	-1 	0.5 	39.1893 	-0.182547 	4.93437e-20
0.765625 	-1 	0.5 	39.1923 	-0.190632 	4.05975e-20
0.78125 	-1 	0.5 	39.1953 	-0.198366 	1.60408e-19
0.796875 	-1 	0.5 	39.1995 	-0.205083 	3.69759e-19
0.8125 	-1 	0.5 	39.2039 	-0.214226 	-5.16198e-20
0.828125 	-1 	0.5 	39.2082 	-0.221748 	5.43738e-22
0.84375 	-1 	0.5 	39.2114 	-0.230268 	9.48062e-22
0.859375 	-1 	0.5 	39.2167 	-0.23859 	1.22534e-19
0.875 	-1 	0.5 	39.2211 	-0.24599 	-1.81308e-19
0.890625 	-1 	0.5 	39.2255 	-0.252933 	-1.93903e-20
0.90625 	-1 	0.5 	39.231 	-0.25951 	-1.00365e-21
0.921875 	-1 	0.5 	39.2359 	-0.266903 	4.66271e-20
0.9375 	-1 	0.5 	39.2422 	-0.274924 	4.92883e-19
0.953125 	-1 	0.5 	39.2485 	-0.282001 	3.96961e-19
0.96875 	-1 	0.5 	39.2546 	-0.288699 	1.82739e-20
0.984375 	-1 	0.5 	39.2593 	-0.295269 	-4.17237e-20
1 	-1 	0.5 	39.2638 	-0.301768 	-9.33486e-20
1.01562 	-1 	0.5 	39.2685 	-0.308258 	-1.70899e-19
1.03125 	-1 	0.5 	39.2751 	-0.314084 	-2.10179e-19
1.04688 	-1 	0.5 	39.2812 	-0.320855 	-6.04114e-19
1.0625 	-1 	0.5 	39.2875 	-0.32653 	-2.78511e-19
1.07812 	-1 	0.5 	39.2935 	-0.330306 	1.88586e-18
1.09375 	-1 	0.5 	39.3009 	-0.339559 	4.47507e-19
1.10938 	-1 	0.5 	39.3075 	-0.344821 	2.71019e-19
1.125 	-1 	0.5 	39.3135 	-0.349894 	-5.57953e-19
1.14062 	-1 	0.5 	39.3208 	-0.354585 	-2.05714e-19
1.15625 	-1 	0.5 	39.3271 	-0.359802 	-1.77276e-18
1.17188 	-1 	0.5 	39.3344 	-0.364218 	-9.51987e-19
1.1875 	-1 	0.5 	39.3418 	-0.368633 	-1.31212e-19
1.20312 	-1 	0.5 	39.3481 	-0.373764 	-3.27042e-19
1.21875 	-1 	0.5 	39.3544 	-0.378876 	-5.69078e-19
1.23438 	-1 	0.5 	39.3607 	-0.383987 	-8.11113e-19
1.25 	-1 	0.5 	39.3675 	-0.387433 	-9.70512e-20
1.26562 	-1 	0.5 	39.3744 	-0.391952 	-6.91463e-20
1.28125 	-1 	0.5 	39.3817 	-0.395033 	-1.31538e-19
1.29688 	-1 	0.5 	39.3891 	-0.398538 	-3.10367e-19
1.3125 	-1 	0.5 	39.3966 	-0.402175 	9.34453e-20
1.32812 	-1 	0.5 	39.4041 	-0.405891 	-2.71533e-19
1.34375 	-1 	0.5 	39.4112 	-0.409337 	-3.7961e-19
1.35938 	-1 	0.5 	39.4186 	-0.411775 	3.64029e-19
1.375 	-1 	0.5 	39.4266 	-0.414725 	3.33731e-19
1.39062 	-1 	0.5 	39.434 	-0.417117 	-7.65322e-19
1.40625 	-1 	0.5 	39.4416 	-0.421975 	2.78369e-19
1.42188 	-1 	0.5 	39.4487 	-0.425817 	1.37074e-18
1.4375 	-1 	0.5 	39.4556 	-0.425637 	2.68314e-19
1.45312 	-1 	0.5 	39.4636 	-0.427804 	-1.5575e-19
1.46875 	-1 	0.5 	39.469 	-0.42856 	1.17338e-19
1.48438 	-1 	0.5 	39.4772 	-0.430509 	2.87358e-19
-0.5 	-0.984375 	0.5 	39.3797 	0.399794 	1.68412e-18
-0.484375 	-0.984375 	0.5 	39.3726 	0.397197 	5.23835e-19
-0.46875 	-0.984375 	0.5 	39.3658 	0.393843 	2.90308e-19
-0.453125 	-0.984375 	0.5 	39.3593 	0.390039 	3.91914e-19
-0.4375 	-0.984375 	0.5 	39.3528 	0.386234 	4.93521e-19
-0.421875 	-0.984375 	0.5 	39.3462 	0.382658 	3.85864e-19
-0.40625 	-0.984375 	0.5 	39.3396 	0.37886 	-4.68574e-19
-0.390625 	-0.984375 	0.5 	39.3333 	0.372849 	-5.98512e-19
-0.375 	-0.984375 	0.5 	39.3269 	0.368761 	-3.10646e-19
-0.359375 	-0.984375 	0.5 	39.3205 	0.364315 	-1.19611e-19
-0.34375 	-0.984375 	0.5 	39.3143 	0.359355 	-6.86387e-20
-0.328125 	-0.984375 	0.5 	39.3083 	0.354886 	7.27013e-20
-0.3125 	-0.984375 	0.5 	39.3028 	0.349918 	-5.2637e-19
-0.296875 	-0.984375 	0.5 	39.2967 	0.345023 	-1.00609e-19
-0.28125 	-0.984375 	0.5 	39.2906 	0.340577 	-3.82515e-20
-0.265625 	-0.984375 	0.5 	39.2837 	0.335789 	-1.75157e-19
-0.25 	-0.984375 	0.5 	39.2777 	0.330324 	-8.54537e-19
-0.234375 	-0.984375 	0.5 	39.2715 	0.32433 	-1.02516e-19
-0.21875 	-0.984375 	0.5 	39.2654 	0.318841 	3.44278e-19
-0.203125 	-0.984375 	0.5 	39.2606 	0.312715 	5.67683e-19
-0.1875 	-0.984375 	0.5 	39.2556 	0.30603 	1.82922e-19
-0.171875 	-0.984375 	0.5 	39.2509 	0.299277 	4.65036e-20
-0.15625 	-0.984375 	0.5 	39.2454 	0.293007 	8.44668e-20
-0.140625 	-0.984375 	0.5 	39.2403 	0.287042 	-8.80071e-20
-0.125 	-0.984375 	0.5 	39.2357 	0.281466 	-3.06685e-19
-0.109375 	-0.984375 	0.5 	39.2305 	0.274887 	-5.01477e-19
-0.09375 	-0.984375 	0.5 	39.2254 	0.266414 	-1.73065e-18
-0.078125 	-0.984375 	0.5 	39.2211 	0.260129 	-3.66478e-20
-0.0625 	-0.984375 	0.5 	39.2157 	0.252697 	1.39401e-19
-0.046875 	-0.984375 	0.5 	39.2119 	0.242818 	9.0473e-19
-0.03125 	-0.984375 	0.5 	39.2075 	0.236825 	5.63141e-19
-0.015625 	-0.984375 	0.5 	39.203 	0.230837 	-3.7927e-19
0 	-0.984375 	0.5 	39.1991 	0.223666 	-3.50828e-20
0.015625 	-0.984375 	0.5 	39.1946 	0.216872 	1.13603e-19
0.03125 	-0.984375 	0.5 	39.1909 	0.209695 	2.25346e-19
0.046875 	-0.984375 	0.5 	39.1876 	0.20222 	1.6446e-19
0.0625 	-0.984375 	0.5 	39.1835 	0.193975 	6.09662e-19
0.078125 	-0.984375 	0.5 	39.1795 	0.186605 	4.56153e-19
0.09375 	-0.984375 	0.5 	39.1762 	0.179784 	-3.24242e-20
0.109375 	-0.984375 	0.5 	39.1734 	0.171229 	-1.86834e-20
0.125 	-0.984375 	0.5 	39.1712 	0.162656 	6.01914e-21
0.140625 	-0.984375 	0.5 	39.1683 	0.154632 	1.36769e-19
0.15625 	-0.984375 	0.5 	39.1652 	0.146801 	2.90358e-19
0.171875 	-0.984375 	0.5 	39.163 	0.137405 	2.57097e-19
0.1875 	-0.984375 	0.5 	39.1608 	0.129591 	4.38301e-20
0.203125 	-0.984375 	0.5 	39.1578 	0.121195 	-8.81273e-19
0.21875 	-0.984375 	0.5 	39.1559 	0.113807 	-4.32141e-19
0.234375 	-0.984375 	0.5 	39.1533 	0.105611 	-2.40117e-19
0.25 	-0.984375 	0.5 	39.1508 	0.0975072 	-1.34024e-19
0.265625 	-0.984375 	0.5 	39.1504 	0.0878135 	-5.28869e-19
0.28125 	-0.984375 	0.5 	39.1485 	0.0803382 	-7.4016e-21
0.296875 	-0.984375 	0.5 	39.1471 	0.070851 	2.93302e-21
0.3125 	-0.984375 	0.5 	39.1459 	0.0619922 	-3.88236e-20
0.328125 	-0.984375 	0.5 	39.1444 	0.0532743 	1.91028e-19
0.34375 	-0.984375 	0.5 	39.1427 	0.0437746 	-4.83611e-20
0.359375 	-0.984375 	0.5 	39.1429 	0.0340812 	-3.81242e-19
0.375 	-0.984375 	0.5 	39.1423 	0.0261315 	-9.93946e-20
0.390625 	-0.984375 	0.5 	39.1419 	0.0172884 	-9.51448e-20
0.40625 	-0.984375 	0.5 	39.1413 	0.00877674 	-2.35828e-19
0.421875 	-0.984375 	0.5 	39.1407 	0.000175316 	-2.88702e-19
0.4375 	-0.984375 	0.5 	39.1412 	-0.00879106 	-1.18142e-19
0.453125 	-0.984375 	0.5 	39.1417 	-0.0177695 	-7.71701e-19
0.46875 	-0.984375 	0.5 	39.1416 	-0.0276563 	-3.74244e-19
0.484375 	-0.984375 	0.5 	39.1427 	-0.0365931 	-1.77408e-19
0.5 	-0.984375 	0.5 	39.1431 	-0.045525 	-3.1989e-19
0.515625 	-0.984375 	0.5 	39.1443 	-0.0539108 	-1.08825e-19
0.53125 	-0.984375 	0.5 	39.1456 	-0.0625961 	-1.96075e-19
0.546875 	-0.984375 	0.5 	39.1469 	-0.0714192 	2.2859e-19
0.5625 	-0.984375 	0.5 	39.1481 	-0.0795115 	4.24904e-19
0.578125 	-0.984375 	0.5 	39.1496 	-0.089605 	-4.33278e-19
0.59375 	-0.984375 	0.5 	39.1514 	-0.0983237 	-4.7855e-19
0.609375 	-0.984375 	0.5 	39.1532 	-0.10705 	-3.76055e-19
0.625 	-0.984375 	0.5 	39.1556 	-0.116073 	-1.87519e-19
0.640625 	-0.984375 	0.5 	39.1577 	-0.124939 	-3.16708e-20
0.65625 	-0.984375 	0.5 	39.1602 	-0.133849 	-1.87184e-19
0.671875 	-0.984375 	0.5 	39.1621 	-0.142213 	-9.27817e-19
0.6875 	-0.984375 	0.5 	39.1648 	-0.151554 	2.29352e-20
0.703125 	-0.984375 	0.5 	39.1679 	-0.160464 	2.15781e-19
0.71875 	-0.984375 	0.5 	39.1721 	-0.168517 	7.4133e-20
0.734375 	-0.984375 	0.5 	39.1758 	-0.177137 	3.26329e-20
0.75 	-0.984375 	0.5 	39.1785 	-0.186175 	1.17267e-20
0.765625 	-0.984375 	0.5 	39.1825 	-0.194314 	1.19251e-19
0.78125 	-0.984375 	0.5 	39.1864 	-0.202302 	2.12269e-19
0.796875 	-0.984375 	0.5 	39.1902 	-0.210494 	1.57157e-19
0.8125 	-0.984375 	0.5 	39.1943 	-0.218727 	1.22364e-19
0.828125 	-0.984375 	0.5 	39.1985 	-0.226714 	1.1182e-19
0.84375 	-0.984375 	0.5 	39.2031 	-0.234635 	1.96601e-19
0.859375 	-0.984375 	0.5 	39.2077 	-0.24229 	7.69393e-20
0.875 	-0.984375 	0.5 	39.2123 	-0.25012 	6.5964e-20
0.890625 	-0.984375 	0.5 	39.2172 	-0.258013 	-2.56804e-20
0.90625 	-0.984375 	0.5 	39.2222 	-0.265509 	2.52908e-20
0.921875 	-0.984375 	0.5 	39.2271 	-0.272658 	5.90164e-20
0.9375 	-0.984375 	0.5 	39.2327 	-0.280409 	2.69506e-19
0.953125 	-0.984375 	0.5 	39.2391 	-0.287212 	4.08765e-20
0.96875 	-0.984375 	0.5 	39.2455 	-0.293947 	4.91855e-21
0.984375 	-0.984375 	0.5 	39.251 	-0.300841 	-9.00804e-21
1 	-0.984375 	0.5 	39.256 	-0.307451 	-7.87817e-21
1.01562 	-0.984375 	0.5 	39.261 	-0.313934 	-1.09567e-19
1.03125 	-0.984375 	0.5 	39.2679 	-0.319074 	-3.44776e-20
1.04688 	-0.984375 	0.5 	39.2749 	-0.326894 	-5.85541e-20
1.0625 	-0.984375 	0.5 	39.2813 	-0.333232 	1.82616e-19
1.07812 	-0.984375 	0.5 	39.2877 	-0.339093 	6.98487e-19
1.09375 	-0.984375 	0.5 	39.2945 	-0.346852 	1.47725e-19
1.10938 	-0.984375 	0.5 	39.301 	-0.352322 	1.48994e-19
1.125 	-0.984375 	0.5 	39.3069 	-0.357148 	-3.86378e-19
1.14062 	-0.984375 	0.5 	39.3133 	-0.361904 	-5.22338e-19
1.15625 	-0.984375 	0.5 	39.3202 	-0.366912 	-1.2199e-18
1.17188 	-0.984375 	0.5 	39.3277 	-0.371372 	-7.82039e-21
1.1875 	-0.984375 	0.5 	39.3347 	-0.37706 	7.17172e-19
1.20312 	-0.984375 	0.5 	39.3416 	-0.380484 	2.10339e-19
1.21875 	-0.984375 	0.5 	39.3481 	-0.385909 	4.77197e-19
1.23438 	-0.984375 	0.5 	39.3547 	-0.390239 	2.66142e-19
1.25 	-0.984375 	0.5 	39.3619 	-0.394305 	-1.50356e-19
1.26562 	-0.984375 	0.5 	39.3695 	-0.39858 	-1.78104e-19
1.28125 	-0.984375 	0.5 	39.377 	-0.401971 	-5.69519e-19
1.29688 	-0.984375 	0.5 	39.3845 	-0.405813 	-4.4332e-19
1.3125 	-0.984375 	0.5 	39.3919 	-0.409431 	2.69603e-19
1.32812 	-0.984375 	0.5 	39.3998 	-0.412854 	2.10037e-19
1.34375 	-0.984375 	0.5 	39.4073 	-0.41657 	-1.78863e-19
1.35938 	-0.984375 	0.5 	39.4145 	-0.419116 	7.03291e-19
1.375 	-0.984375 	0.5 	39.4227 	-0.422169 	4.07094e-19
1.39062 	-0.984375 	0.5 	39.431 	-0.425319 	-1.39186e-19
1.40625 	-0.984375 	0.5 	39.4383 	-0.427902 	4.15419e-20
1.42188 	-0.984375 	0.5 	39.4454 	-0.430433 	4.18364e-19
1.4375 	-0.984375 	0.5 	39.4524 	-0.432963 	7.95185e-19
1.45312 	-0.984375 	0.5 	39.4594 	-0.433586 	4.37044e-20
1.46875 	-0.984375 	0.5 	39.4663 	-0.435398 	1.93046e-19
1.48438 	-0.984375 	0.5 	39.4741 	-0.437158 	2.4043e-19
-0.5 	-0.96875 	0.5 	39.3741 	0.406996 	-2.74024e-19
-0.484375 	-0.96875 	0.5 	39.3672 	0.404126 	-3.24006e-19
-0.46875 	-0.96875 	0.5 	39.3604 	0.401138 	3.12782e-20
-0.453125 	-0.96875 	0.5 	39.3537 	0.396985 	2.20725e-19
-0.4375 	-0.96875 	0.5 	39.3473 	0.392943 	5.39743e-19
-0.421875 	-0.96875 	0.5 	39.3405 	0.389662 	-3.56539e-19
-0.40625 	-0.96875 	0.5 	39.3333 	0.384891 	-5.35277e-19
-0.390625 	-0.96875 	0.5 	39.3266 	0.379403 	-4.66731e-19
-0.375 	-0.96875 	0.5 	39.3211 	0.373068 	-8.23055e-19
-0.359375 	-0.96875 	0.5 	39.3146 	0.369241 	-4.60344e-19
-0.34375 	-0.96875 	0.5 	39.3081 	0.365414 	-9.76323e-20
-0.328125 	-0.96875 	0.5 	39.3018 	0.360526 	-1.06275e-19
-0.3125 	-0.96875 	0.5 	39.2951 	0.355885 	-1.46218e-19
-0.296875 	-0.96875 	0.5 	39.2889 	0.351386 	-1.14576e-19
-0.28125 	-0.96875 	0.5 	39.2826 	0.346887 	-8.2934e-20
-0.265625 	-0.96875 	0.5 	39.2758 	0.342112 	-2.11951e-19
-0.25 	-0.96875 	0.5 	39.2698 	0.33658 	-7.05527e-19
-0.234375 	-0.96875 	0.5 	39.2636 	0.330614 	-5.88136e-20
-0.21875 	-0.96875 	0.5 	39.2578 	0.324294 	1.22532e-19
-0.203125 	-0.96875 	0.5 	39.2529 	0.317694 	-3.32983e-20
-0.1875 	-0.96875 	0.5 	39.2485 	0.309767 	-5.88788e-19
-0.171875 	-0.96875 	0.5 	39.2433 	0.304956 	3.0451e-20
-0.15625 	-0.96875 	0.5 	39.2383 	0.298233 	1.10479e-19
-0.140625 	-0.96875 	0.5 	39.2326 	0.291743 	2.99582e-20
-0.125 	-0.96875 	0.5 	39.2276 	0.285854 	1.04107e-19
-0.109375 	-0.96875 	0.5 	39.222 	0.279081 	9.55132e-20
-0.09375 	-0.96875 	0.5 	39.2173 	0.271506 	-1.05719e-18
-0.078125 	-0.96875 	0.5 	39.2126 	0.265075 	6.17005e-19
-0.0625 	-0.96875 	0.5 	39.2071 	0.257733 	5.79966e-19
-0.046875 	-0.96875 	0.5 	39.2025 	0.248715 	6.04475e-19
-0.03125 	-0.96875 	0.5 	39.198 	0.242684 	-2.16666e-19
-0.015625 	-0.96875 	0.5 	39.1942 	0.234595 	-6.61081e-19
0 	-0.96875 	0.5 	39.191 	0.227773 	-1.39293e-20
0.015625 	-0.96875 	0.5 	39.1862 	0.220147 	-1.27418e-20
0.03125 	-0.96875 	0.5 	39.1822 	0.21309 	1.11143e-19
0.046875 	-0.96875 	0.5 	39.1777 	0.205818 	-6.73844e-19
0.0625 	-0.96875 	0.5 	39.1747 	0.197656 	3.36648e-19
0.078125 	-0.96875 	0.5 	39.1708 	0.190354 	1.19896e-19
0.09375 	-0.96875 	0.5 	39.1679 	0.182694 	-8.08512e-21
0.109375 	-0.96875 	0.5 	39.1649 	0.174045 	2.59521e-21
0.125 	-0.96875 	0.5 	39.1624 	0.165732 	2.20121e-20
0.140625 	-0.96875 	0.5 	39.1589 	0.15725 	-1.83295e-19
0.15625 	-0.96875 	0.5 	39.1565 	0.148589 	-6.83587e-20
0.171875 	-0.96875 	0.5 	39.1541 	0.139979 	3.2526e-20
0.1875 	-0.96875 	0.5 	39.1508 	0.131738 	-3.9353e-19
0.203125 	-0.96875 	0.5 	39.1475 	0.123512 	-7.0914e-19
0.21875 	-0.96875 	0.5 	39.1453 	0.11594 	-4.0923e-19
0.234375 	-0.96875 	0.5 	39.1427 	0.107618 	-5.83188e-20
0.25 	-0.96875 	0.5 	39.1411 	0.0990452 	-1.99581e-19
0.265625 	-0.96875 	0.5 	39.139 	0.090283 	-3.88785e-19
0.28125 	-0.96875 	0.5 	39.1381 	0.082153 	-1.96378e-19
0.296875 	-0.96875 	0.5 	39.1373 	0.0730786 	-1.37186e-20
0.3125 	-0.96875 	0.5 	39.1359 	0.0633952 	-3.4275e-20
0.328125 	-0.96875 	0.5 	39.1349 	0.0546729 	-2.52403e-19
0.34375 	-0.96875 	0.5 	39.1332 	0.0452647 	-1.93366e-19
0.359375 	-0.96875 	0.5 	39.1328 	0.0353135 	-2.10004e-19
0.375 	-0.96875 	0.5 	39.1325 	0.0266555 	1.14287e-19
0.390625 	-0.96875 	0.5 	39.1314 	0.0180561 	-1.50559e-20
0.40625 	-0.96875 	0.5 	39.1313 	0.00923329 	-2.624e-20
0.421875 	-0.96875 	0.5 	39.1306 	0.000500356 	-1.74972e-19
0.4375 	-0.96875 	0.5 	39.1311 	-0.00911763 	-1.55566e-19
0.453125 	-0.96875 	0.5 	39.1316 	-0.0181876 	-8.24085e-19
0.46875 	-0.96875 	0.5 	39.1315 	-0.0280723 	-3.9584e-19
0.484375 	-0.96875 	0.5 	39.1322 	-0.0372294 	-3.85088e-19
0.5 	-0.96875 	0.5 	39.1331 	-0.0462543 	-3.95869e-21
0.515625 	-0.96875 	0.5 	39.1342 	-0.0553686 	-1.37705e-19
0.53125 	-0.96875 	0.5 	39.1354 	-0.0642263 	-7.74745e-20
0.546875 	-0.96875 	0.5 	39.1366 	-0.0732036 	8.67095e-20
0.5625 	-0.96875 	0.5 	39.138 	-0.0822682 	7.5291e-21
0.578125 	-0.96875 	0.5 	39.1391 	-0.0923942 	2.42651e-19
0.59375 	-0.96875 	0.5 	39.1403 	-0.101029 	-2.73193e-19
0.609375 	-0.96875 	0.5 	39.1422 	-0.109949 	-5.0865e-20
0.625 	-0.96875 	0.5 	39.1458 	-0.120046 	-3.38795e-19
0.640625 	-0.96875 	0.5 	39.1479 	-0.12783 	-1.08546e-19
0.65625 	-0.96875 	0.5 	39.1501 	-0.136427 	-1.44258e-19
0.671875 	-0.96875 	0.5 	39.1526 	-0.145274 	3.37631e-19
0.6875 	-0.96875 	0.5 	39.1554 	-0.153904 	1.08243e-18
0.703125 	-0.96875 	0.5 	39.1583 	-0.163415 	1.78417e-19
0.71875 	-0.96875 	0.5 	39.1624 	-0.17182 	6.79429e-20
0.734375 	-0.96875 	0.5 	39.1655 	-0.180321 	9.15974e-20
0.75 	-0.96875 	0.5 	39.1689 	-0.188943 	9.3041e-20
0.765625 	-0.96875 	0.5 	39.1727 	-0.197255 	3.89292e-19
0.78125 	-0.96875 	0.5 	39.1764 	-0.205906 	4.9401e-19
0.796875 	-0.96875 	0.5 	39.1809 	-0.214561 	1.76473e-19
0.8125 	-0.96875 	0.5 	39.1844 	-0.222217 	3.40235e-20
0.828125 	-0.96875 	0.5 	39.189 	-0.230724 	9.03576e-20
0.84375 	-0.96875 	0.5 	39.1937 	-0.238811 	2.4024e-19
0.859375 	-0.96875 	0.5 	39.1984 	-0.246513 	3.18411e-19
0.875 	-0.96875 	0.5 	39.2034 	-0.254555 	3.76091e-20
0.890625 	-0.96875 	0.5 	39.2084 	-0.262726 	-2.27556e-19
0.90625 	-0.96875 	0.5 	39.2131 	-0.270385 	-2.46747e-20
0.921875 	-0.96875 	0.5 	39.2181 	-0.278202 	1.92668e-20
0.9375 	-0.96875 	0.5 	39.2238 	-0.285944 	7.84872e-20
0.953125 	-0.96875 	0.5 	39.2297 	-0.292344 	6.64621e-20
0.96875 	-0.96875 	0.5 	39.2361 	-0.299102 	2.75687e-20
0.984375 	-0.96875 	0.5 	39.2411 	-0.306021 	1.41907e-20
1 	-0.96875 	0.5 	39.2476 	-0.312977 	-7.78973e-21
1.01562 	-0.96875 	0.5 	39.2536 	-0.319609 	-4.82348e-20
1.03125 	-0.96875 	0.5 	39.2606 	-0.326181 	5.44109e-22
1.04688 	-0.96875 	0.5 	39.2674 	-0.332987 	-2.51143e-19
1.0625 	-0.96875 	0.5 	39.2739 	-0.340139 	2.69002e-19
1.07812 	-0.96875 	0.5 	39.2801 	-0.347286 	-3.89062e-19
1.09375 	-0.96875 	0.5 	39.2861 	-0.354339 	-6.15829e-19
1.10938 	-0.96875 	0.5 	39.2926 	-0.358936 	2.35008e-19
1.125 	-0.96875 	0.5 	39.2994 	-0.363966 	2.46296e-19
1.14062 	-0.96875 	0.5 	39.3064 	-0.368861 	2.8993e-21
1.15625 	-0.96875 	0.5 	39.3137 	-0.37377 	-5.06025e-20
1.17188 	-0.96875 	0.5 	39.3206 	-0.378615 	2.34556e-19
1.1875 	-0.96875 	0.5 	39.3276 	-0.383802 	7.10606e-19
1.20312 	-0.96875 	0.5 	39.3346 	-0.387501 	4.46993e-19
1.21875 	-0.96875 	0.5 	39.3412 	-0.392216 	4.32546e-19
1.23438 	-0.96875 	0.5 	39.349 	-0.396361 	-3.31755e-20
1.25 	-0.96875 	0.5 	39.3574 	-0.40154 	-2.30916e-19
1.26562 	-0.96875 	0.5 	39.3649 	-0.405574 	6.97672e-19
1.28125 	-0.96875 	0.5 	39.3724 	-0.409698 	5.41037e-21
1.29688 	-0.96875 	0.5 	39.3799 	-0.413299 	-3.32782e-19
1.3125 	-0.96875 	0.5 	39.3873 	-0.41671 	4.05804e-19
1.32812 	-0.96875 	0.5 	39.3952 	-0.420204 	2.22595e-19
1.34375 	-0.96875 	0.5 	39.4031 	-0.423698 	3.93859e-20
1.35938 	-0.96875 	0.5 	39.4108 	-0.427631 	-2.54299e-19
1.375 	-0.96875 	0.5 	39.4185 	-0.431535 	-6.23787e-19
1.39062 	-0.96875 	0.5 	39.4263 	-0.433891 	-5.91065e-19
1.40625 	-0.96875 	0.5 	39.4336 	-0.435691 	-7.78076e-19
1.42188 	-0.96875 	0.5 	39.4408 	-0.438006 	-9.70197e-19
1.4375 	-0.96875 	0.5 	39.4483 	-0.439142 	-5.35683e-19
1.45312 	-0.96875 	0.5 	39.4558 	-0.440279 	-1.0117e-19
1.46875 	-0.96875 	0.5 	39.4634 	-0.442093 	1.10177e-19
1.48438 	-0.96875 	0.5 	39.4711 	-0.444557 	4.80313e-20
-0.5 	-0.953125 	0.5 	39.3688 	0.413746 	-1.28298e-18
-0.484375 	-0.953125 	0.5 	39.3619 	0.411053 	-1.94204e-19
-0.46875 	-0.953125 	0.5 	39.3553 	0.408352 	-2.49127e-21
-0.453125 	-0.953125 	0.5 	39.3482 	0.404333 	-1.1592e-19
-0.4375 	-0.953125 	0.5 	39.3414 	0.400517 	-2.09307e-19
-0.421875 	-0.953125 	0.5 	39.3343 	0.395678 	-4.32557e-19
-0.40625 	-0.953125 	0.5 	39.3268 	0.391234 	-3.95692e-19
-0.390625 	-0.953125 	0.5 	39.3198 	0.386298 	-2.37382e-19
-0.375 	-0.953125 	0.5 	39.3133 	0.381981 	3.81354e-19
-0.359375 	-0.953125 	0.5 	39.3068 	0.377028 	1.33248e-18
-0.34375 	-0.953125 	0.5 	39.3014 	0.37235 	6.76695e-19
-0.328125 	-0.953125 	0.5 	39.2947 	0.367486 	-8.63983e-19
-0.3125 	-0.953125 	0.5 	39.2884 	0.362029 	-7.66108e-20
-0.296875 	-0.953125 	0.5 	39.2826 	0.355446 	-2.48278e-20
-0.28125 	-0.953125 	0.5 	39.2752 	0.352056 	-1.44333e-19
-0.265625 	-0.953125 	0.5 	39.268 	0.348416 	-2.49926e-19
-0.25 	-0.953125 	0.5 	39.2619 	0.342138 	-1.09289e-19
-0.234375 	-0.953125 	0.5 	39.256 	0.335801 	5.82448e-20
-0.21875 	-0.953125 	0.5 	39.2507 	0.329395 	9.46871e-20
-0.203125 	-0.953125 	0.5 	39.2453 	0.323893 	-6.75959e-20
-0.1875 	-0.953125 	0.5 	39.2405 	0.316969 	-6.89538e-20
-0.171875 	-0.953125 	0.5 	39.2357 	0.310318 	-4.93142e-20
-0.15625 	-0.953125 	0.5 	39.2307 	0.303611 	2.73475e-20
-0.140625 	-0.953125 	0.5 	39.2255 	0.296859 	9.86596e-20
-0.125 	-0.953125 	0.5 	39.22 	0.29024 	1.36126e-19
-0.109375 	-0.953125 	0.5 	39.2146 	0.283538 	2.19941e-20
-0.09375 	-0.953125 	0.5 	39.2092 	0.276822 	-7.29308e-20
-0.078125 	-0.953125 	0.5 	39.2038 	0.269532 	2.33364e-20
-0.0625 	-0.953125 	0.5 	39.1984 	0.262251 	1.0683e-19
-0.046875 	-0.953125 	0.5 	39.1931 	0.254862 	1.67263e-19
-0.03125 	-0.953125 	0.5 	39.1893 	0.246675 	-3.42464e-19
-0.015625 	-0.953125 	0.5 	39.1855 	0.238736 	-6.86771e-19
0 	-0.953125 	0.5 	39.182 	0.231859 	-9.50466e-20
0.015625 	-0.953125 	0.5 	39.1777 	0.224108 	-5.26348e-20
0.03125 	-0.953125 	0.5 	39.1734 	0.216472 	-8.53335e-20
0.046875 	-0.953125 	0.5 	39.1695 	0.208789 	2.61405e-19
0.0625 	-0.953125 	0.5 	39.1655 	0.201208 	6.97596e-19
0.078125 	-0.953125 	0.5 	39.1627 	0.193266 	1.68728e-19
0.09375 	-0.953125 	0.5 	39.1597 	0.185604 	1.70302e-20
0.109375 	-0.953125 	0.5 	39.1571 	0.17736 	2.563e-20
0.125 	-0.953125 	0.5 	39.1521 	0.168368 	8.12267e-20
0.140625 	-0.953125 	0.5 	39.1492 	0.160407 	-1.15529e-19
0.15625 	-0.953125 	0.5 	39.1468 	0.151745 	1.44243e-20
0.171875 	-0.953125 	0.5 	39.144 	0.143042 	8.88807e-20
0.1875 	-0.953125 	0.5 	39.1401 	0.134486 	3.5799e-19
0.203125 	-0.953125 	0.5 	39.1372 	0.12639 	-1.07762e-19
0.21875 	-0.953125 	0.5 	39.1352 	0.117028 	-3.82171e-19
0.234375 	-0.953125 	0.5 	39.1336 	0.10876 	1.20418e-18
0.25 	-0.953125 	0.5 	39.1323 	0.100423 	5.56247e-20
0.265625 	-0.953125 	0.5 	39.1288 	0.0910146 	-6.29213e-19
0.28125 	-0.953125 	0.5 	39.128 	0.0831046 	1.12711e-18
0.296875 	-0.953125 	0.5 	39.1269 	0.0736781 	6.61713e-20
0.3125 	-0.953125 	0.5 	39.126 	0.0645096 	-1.77177e-19
0.328125 	-0.953125 	0.5 	39.1243 	0.0552846 	-1.58569e-19
0.34375 	-0.953125 	0.5 	39.1235 	0.0465342 	1.57082e-19
0.359375 	-0.953125 	0.5 	39.1229 	0.0366805 	1.89068e-19
0.375 	-0.953125 	0.5 	39.1224 	0.0273098 	2.65148e-19
0.390625 	-0.953125 	0.5 	39.1216 	0.0185767 	3.24046e-19
0.40625 	-0.953125 	0.5 	39.1205 	0.0100479 	-1.94947e-21
0.421875 	-0.953125 	0.5 	39.1213 	0.00102114 	-3.43979e-19
0.4375 	-0.953125 	0.5 	39.1215 	-0.00897302 	2.0573e-19
0.453125 	-0.953125 	0.5 	39.1217 	-0.0185938 	1.94078e-20
0.46875 	-0.953125 	0.5 	39.1215 	-0.0283346 	-5.95763e-20
0.484375 	-0.953125 	0.5 	39.1215 	-0.0378202 	8.70038e-19
0.5 	-0.953125 	0.5 	39.1223 	-0.0467233 	-2.95804e-21
0.515625 	-0.953125 	0.5 	39.1242 	-0.0557391 	-1.76977e-19
0.53125 	-0.953125 	0.5 	39.1256 	-0.0644355 	-5.66039e-19
0.546875 	-0.953125 	0.5 	39.1264 	-0.0742461 	1.38084e-19
0.5625 	-0.953125 	0.5 	39.1269 	-0.0844407 	5.94016e-19
0.578125 	-0.953125 	0.5 	39.1281 	-0.0939202 	3.97692e-19
0.59375 	-0.953125 	0.5 	39.1294 	-0.1034 	2.01368e-19
0.609375 	-0.953125 	0.5 	39.1315 	-0.112536 	1.1414e-19
0.625 	-0.953125 	0.5 	39.1343 	-0.121386 	1.16195e-19
0.640625 	-0.953125 	0.5 	39.1372 	-0.130236 	1.18249e-19
0.65625 	-0.953125 	0.5 	39.14 	-0.138741 	-1.08777e-20
0.671875 	-0.953125 	0.5 	39.1425 	-0.148214 	7.73339e-20
0.6875 	-0.953125 	0.5 	39.1453 	-0.157332 	3.91598e-19
0.703125 	-0.953125 	0.5 	39.1482 	-0.166454 	2.08737e-19
0.71875 	-0.953125 	0.5 	39.1517 	-0.17499 	1.9643e-19
0.734375 	-0.953125 	0.5 	39.1556 	-0.183895 	4.12133e-19
0.75 	-0.953125 	0.5 	39.1589 	-0.192723 	-2.77679e-19
0.765625 	-0.953125 	0.5 	39.1625 	-0.201165 	6.74815e-19
0.78125 	-0.953125 	0.5 	39.1665 	-0.209885 	2.00363e-19
0.796875 	-0.953125 	0.5 	39.1711 	-0.218055 	2.14439e-20
0.8125 	-0.953125 	0.5 	39.1754 	-0.22712 	3.6339e-20
0.828125 	-0.953125 	0.5 	39.1796 	-0.235246 	8.98396e-20
0.84375 	-0.953125 	0.5 	39.184 	-0.243085 	3.05581e-19
0.859375 	-0.953125 	0.5 	39.1894 	-0.25127 	2.98533e-19
0.875 	-0.953125 	0.5 	39.1946 	-0.258885 	-5.52044e-20
0.890625 	-0.953125 	0.5 	39.1995 	-0.267304 	-2.22472e-19
0.90625 	-0.953125 	0.5 	39.2041 	-0.275909 	-1.43396e-19
0.921875 	-0.953125 	0.5 	39.2103 	-0.281415 	-2.95429e-20
0.9375 	-0.953125 	0.5 	39.2157 	-0.291492 	3.73228e-20
0.953125 	-0.953125 	0.5 	39.2215 	-0.298482 	2.31132e-20
0.96875 	-0.953125 	0.5 	39.2262 	-0.30399 	8.39109e-20
0.984375 	-0.953125 	0.5 	39.2321 	-0.310901 	5.38645e-20
1 	-0.953125 	0.5 	39.239 	-0.318268 	2.03831e-20
1.01562 	-0.953125 	0.5 	39.2461 	-0.325813 	2.45852e-19
1.03125 	-0.953125 	0.5 	39.253 	-0.332598 	-5.14221e-19
1.04688 	-0.953125 	0.5 	39.26 	-0.339603 	-5.53099e-19
1.0625 	-0.953125 	0.5 	39.266 	-0.347004 	5.57939e-19
1.07812 	-0.953125 	0.5 	39.2715 	-0.353237 	7.06592e-19
1.09375 	-0.953125 	0.5 	39.2781 	-0.359166 	1.78617e-19
1.10938 	-0.953125 	0.5 	39.2843 	-0.365468 	1.57632e-19
1.125 	-0.953125 	0.5 	39.2914 	-0.370395 	7.42851e-20
1.14062 	-0.953125 	0.5 	39.3 	-0.375133 	3.2222e-19
1.15625 	-0.953125 	0.5 	39.3077 	-0.380752 	-8.1384e-20
1.17188 	-0.953125 	0.5 	39.3145 	-0.385474 	3.84016e-19
1.1875 	-0.953125 	0.5 	39.3212 	-0.389859 	4.79136e-19
1.20312 	-0.953125 	0.5 	39.3279 	-0.394183 	4.10134e-19
1.21875 	-0.953125 	0.5 	39.3354 	-0.398925 	3.5443e-19
1.23438 	-0.953125 	0.5 	39.3444 	-0.403704 	-5.57046e-20
1.25 	-0.953125 	0.5 	39.3526 	-0.40899 	-1.96932e-19
1.26562 	-0.953125 	0.5 	39.3601 	-0.413083 	6.74372e-19
1.28125 	-0.953125 	0.5 	39.3677 	-0.417019 	2.64001e-19
1.29688 	-0.953125 	0.5 	39.3753 	-0.420946 	-1.5365e-19
1.3125 	-0.953125 	0.5 	39.383 	-0.424655 	-6.01806e-20
1.32812 	-0.953125 	0.5 	39.3907 	-0.42826 	-1.32219e-20
1.34375 	-0.953125 	0.5 	39.3993 	-0.431707 	3.96884e-20
1.35938 	-0.953125 	0.5 	39.4065 	-0.434807 	-2.96209e-19
1.375 	-0.953125 	0.5 	39.4138 	-0.436621 	-1.13534e-19
1.39062 	-0.953125 	0.5 	39.4214 	-0.441487 	-7.31779e-19
1.40625 	-0.953125 	0.5 	39.4289 	-0.442443 	-5.68106e-19
1.42188 	-0.953125 	0.5 	39.4362 	-0.444587 	-6.69574e-19
1.4375 	-0.953125 	0.5 	39.4442 	-0.445369 	6.95495e-20
1.45312 	-0.953125 	0.5 	39.4533 	-0.447928 	2.98106e-19
1.46875 	-0.953125 	0.5 	39.4612 	-0.449965 	5.18384e-20
1.48438 	-0.953125 	0.5 	39.4682 	-0.451513 	5.39753e-20
-0.5 	-0.9375 	0.5 	39.3636 	0.420677 	-1.1256e-18
-0.484375 	-0.9375 	0.5 	39.3567 	0.418007 	-2.46535e-19
-0.46875 	-0.9375 	0.5 	39.3498 	0.414562 	-2.42219e-19
-0.453125 	-0.9375 	0.5 	39.3431 	0.411107 	-3.10001e-19
-0.4375 	-0.9375 	0.5 	39.3352 	0.407535 	-2.31515e-19
-0.421875 	-0.9375 	0.5 	39.3282 	0.404784 	-3.97371e-19
-0.40625 	-0.9375 	0.5 	39.3203 	0.399185 	-1.58345e-19
-0.390625 	-0.9375 	0.5 	39.3134 	0.394298 	7.11392e-20
-0.375 	-0.9375 	0.5 	39.3067 	0.388918 	1.07097e-18
-0.359375 	-0.9375 	0.5 	39.3001 	0.383939 	2.17808e-18
-0.34375 	-0.9375 	0.5 	39.2952 	0.37943 	6.64387e-20
-0.328125 	-0.9375 	0.5 	39.2877 	0.374307 	-1.61529e-18
-0.3125 	-0.9375 	0.5 	39.2809 	0.369962 	-4.77987e-19
-0.296875 	-0.9375 	0.5 	39.2743 	0.365029 	-1.27302e-19
-0.28125 	-0.9375 	0.5 	39.2679 	0.359442 	-1.24476e-19
-0.265625 	-0.9375 	0.5 	39.2611 	0.354303 	-1.65398e-19
-0.25 	-0.9375 	0.5 	39.255 	0.347507 	-2.9382e-19
-0.234375 	-0.9375 	0.5 	39.2493 	0.340863 	-4.62691e-20
-0.21875 	-0.9375 	0.5 	39.2436 	0.334497 	6.68426e-20
-0.203125 	-0.9375 	0.5 	39.2383 	0.328822 	-7.42165e-20
-0.1875 	-0.9375 	0.5 	39.2333 	0.322177 	6.28553e-20
-0.171875 	-0.9375 	0.5 	39.2274 	0.315924 	1.09435e-19
-0.15625 	-0.9375 	0.5 	39.2227 	0.308963 	1.22852e-19
-0.140625 	-0.9375 	0.5 	39.2169 	0.302279 	3.63371e-19
-0.125 	-0.9375 	0.5 	39.2112 	0.295837 	-3.53399e-19
-0.109375 	-0.9375 	0.5 	39.2058 	0.289063 	-2.97397e-19
-0.09375 	-0.9375 	0.5 	39.2009 	0.281947 	-4.95451e-20
-0.078125 	-0.9375 	0.5 	39.1962 	0.275168 	6.70621e-21
-0.0625 	-0.9375 	0.5 	39.1905 	0.267817 	1.38493e-19
-0.046875 	-0.9375 	0.5 	39.1858 	0.259973 	-9.82274e-20
-0.03125 	-0.9375 	0.5 	39.1805 	0.254464 	5.95234e-19
-0.015625 	-0.9375 	0.5 	39.1768 	0.244948 	6.45322e-20