# Force coefficients
# liftDir    : (0.000000e+00 1.000000e+00 0.000000e+00)
# dragDir    : (1.000000e+00 0.000000e+00 0.000000e+00)
# pitchAxis  : (0.000000e+00 0.000000e+00 1.000000e+00)
# magUInf    : 5.939300e+01
# lRef       : 1.000000e+00
# Aref       : 1.000000e+00
# CofR       : (0.000000e+00 0.000000e+00 0.000000e+00)
# Time       	Cm           	Cd           	Cl           	Cl(f)        	Cl(r)        
1            	3.295127e+00	2.548203e+00	2.723966e+00	4.657110e+00	-1.933145e+00
2            	2.794085e+00	2.077476e+00	2.432067e+00	4.010119e+00	-1.578052e+00
3            	-8.321149e-02	-1.038082e-01	1.053766e-01	-3.052320e-02	1.358998e-01
4            	-2.044774e+00	-1.468540e+00	-1.662866e+00	-2.876207e+00	1.213341e+00
5            	-1.746833e+00	-1.192293e+00	-1.536563e+00	-2.515114e+00	9.785512e-01
6            	1.142687e-01	1.759392e-01	-5.773216e-02	8.540266e-02	-1.431348e-01
7            	1.344150e+00	9.927519e-01	1.087422e+00	1.887861e+00	-8.004385e-01
8            	1.131861e+00	7.608541e-01	1.070630e+00	1.667175e+00	-5.965459e-01
9            	7.392318e-02	-5.513855e-02	2.923806e-01	2.201135e-01	7.226713e-02
10           	-6.985197e-01	-5.565030e-01	-4.485019e-01	-9.227707e-01	4.742688e-01
11           	-6.176167e-01	-4.228950e-01	-5.302671e-01	-8.827503e-01	3.524832e-01
12           	-1.183603e-01	-3.423780e-03	-2.484775e-01	-2.425990e-01	-5.878497e-03
13           	4.451210e-01	3.800051e-01	2.935489e-01	5.918954e-01	-2.983465e-01
14           	4.787833e-01	3.317431e-01	4.651628e-01	7.113647e-01	-2.462019e-01
15           	1.950197e-01	7.822810e-02	3.248106e-01	3.574250e-01	-3.261440e-02
16           	-1.728154e-01	-1.818677e-01	-1.658420e-02	-1.811075e-01	1.645233e-01
17           	-2.445213e-01	-1.867708e-01	-1.790557e-01	-3.340491e-01	1.549934e-01
18           	-8.086255e-02	-2.823586e-02	-1.345533e-01	-1.481392e-01	1.358589e-02
19           	1.022545e-01	1.069888e-01	2.300172e-02	1.137554e-01	-9.075364e-02
20           	1.764778e-01	1.347168e-01	1.601563e-01	2.565559e-01	-9.639959e-02
21           	1.397807e-01	6.905763e-02	2.240132e-01	2.517873e-01	-2.777407e-02
22           	4.740434e-02	-4.845767e-03	1.579598e-01	1.263842e-01	3.157556e-02
23           	-2.009372e-02	-3.599616e-02	4.836708e-02	4.089822e-03	4.427726e-02
24           	-3.001482e-02	-2.091052e-02	-2.209127e-02	-4.106045e-02	1.896918e-02
25           	9.299147e-03	2.222403e-02	-3.163408e-02	-6.517892e-03	-2.511619e-02
26           	4.690514e-02	4.153096e-02	2.289009e-02	5.835018e-02	-3.546009e-02
27           	6.738959e-02	3.924557e-02	8.883518e-02	1.118072e-01	-2.297200e-02
28           	6.657773e-02	2.244928e-02	1.340328e-01	1.335941e-01	4.386749e-04
29           	4.638433e-02	1.006297e-02	1.149318e-01	1.038502e-01	1.108159e-02
30           	2.998406e-02	8.846267e-03	7.086546e-02	6.541679e-02	5.448673e-03
31           	1.963401e-02	1.338304e-02	2.118599e-02	3.022700e-02	-9.041009e-03
32           	2.623094e-02	1.918146e-02	1.951725e-02	3.598956e-02	-1.647231e-02
33           	3.703004e-02	2.086157e-02	4.527271e-02	5.966640e-02	-1.439368e-02
34           	4.784174e-02	2.013760e-02	7.970734e-02	8.769541e-02	-7.988068e-03
35           	5.038107e-02	1.846253e-02	9.486537e-02	9.781376e-02	-2.948387e-03
36           	4.549071e-02	1.705598e-02	8.689636e-02	8.893888e-02	-2.042529e-03
37           	3.834050e-02	1.633948e-02	6.700267e-02	7.184183e-02	-4.839160e-03
38           	3.402590e-02	1.618497e-02	5.101840e-02	5.953510e-02	-8.516703e-03
39           	3.506847e-02	1.656528e-02	4.895643e-02	5.954669e-02	-1.059026e-02
40           	3.965519e-02	1.703231e-02	5.927237e-02	6.929137e-02	-1.001900e-02
41           	4.406356e-02	1.725130e-02	7.239407e-02	8.026060e-02	-7.866530e-03
42           	4.459181e-02	1.715314e-02	7.632522e-02	8.275442e-02	-6.429201e-03
43           	4.309638e-02	1.700423e-02	7.335108e-02	7.977192e-02	-6.420838e-03
44           	4.028475e-02	1.675393e-02	6.580455e-02	7.318702e-02	-7.382478e-03
45           	3.954871e-02	1.665916e-02	6.241001e-02	7.075372e-02	-8.343709e-03
46           	4.034684e-02	1.653449e-02	6.339553e-02	7.204461e-02	-8.649073e-03
47           	4.286450e-02	1.656993e-02	6.864835e-02	7.718867e-02	-8.540322e-03
48           	4.420430e-02	1.653134e-02	7.206079e-02	8.023469e-02	-8.173902e-03
49           	4.401364e-02	1.648948e-02	7.198692e-02	8.000710e-02	-8.020178e-03
50           	4.271068e-02	1.632297e-02	6.958134e-02	7.750135e-02	-7.920013e-03
51           	4.198980e-02	1.623214e-02	6.789500e-02	7.593730e-02	-8.042302e-03
52           	4.215896e-02	1.618982e-02	6.803219e-02	7.617505e-02	-8.142862e-03
53           	4.340091e-02	1.628545e-02	7.011269e-02	7.845725e-02	-8.344567e-03
54           	4.441220e-02	1.633446e-02	7.204031e-02	8.043235e-02	-8.392041e-03
55           	4.447121e-02	1.627350e-02	7.226003e-02	8.060123e-02	-8.341198e-03
56           	4.408842e-02	1.610716e-02	7.183350e-02	8.000517e-02	-8.171664e-03
57           	4.374973e-02	1.595089e-02	7.135348e-02	7.942648e-02	-8.072992e-03
58           	4.379897e-02	1.589414e-02	7.142309e-02	7.951051e-02	-8.087421e-03
59           	4.408906e-02	1.588642e-02	7.188690e-02	8.003251e-02	-8.145607e-03
60           	4.451334e-02	1.590312e-02	7.262262e-02	8.082465e-02	-8.202032e-03
61           	4.490861e-02	1.591353e-02	7.336961e-02	8.159342e-02	-8.223802e-03
62           	4.517215e-02	1.589013e-02	7.395426e-02	8.214928e-02	-8.195016e-03
63           	4.529909e-02	1.582964e-02	7.435414e-02	8.247616e-02	-8.122027e-03
64           	4.529774e-02	1.574199e-02	7.453965e-02	8.256756e-02	-8.027909e-03
65           	4.528892e-02	1.566093e-02	7.468170e-02	8.262977e-02	-7.948064e-03
66           	4.534128e-02	1.560175e-02	7.489334e-02	8.278795e-02	-7.894608e-03
67           	4.549008e-02	1.557001e-02	7.524154e-02	8.311085e-02	-7.869307e-03
68           	4.566609e-02	1.554676e-02	7.562390e-02	8.347804e-02	-7.854137e-03
69           	4.586088e-02	1.552541e-02	7.604723e-02	8.388450e-02	-7.837261e-03
70           	4.608722e-02	1.549827e-02	7.657647e-02	8.437546e-02	-7.798991e-03
71           	4.633512e-02	1.546425e-02	7.720668e-02	8.493846e-02	-7.731784e-03
72           	4.651109e-02	1.541917e-02	7.772673e-02	8.537446e-02	-7.647725e-03
73           	4.662470e-02	1.537327e-02	7.811705e-02	8.568322e-02	-7.566173e-03
74           	4.668905e-02	1.532670e-02	7.839367e-02	8.588588e-02	-7.492211e-03
75           	4.675705e-02	1.528409e-02	7.865914e-02	8.608662e-02	-7.427478e-03
76           	4.684447e-02	1.526826e-02	7.897782e-02	8.633338e-02	-7.355561e-03
77           	4.688189e-02	1.525173e-02	7.908531e-02	8.642455e-02	-7.339232e-03
78           	4.706052e-02	1.519875e-02	7.961332e-02	8.686718e-02	-7.253864e-03
79           	4.712308e-02	1.516881e-02	7.978833e-02	8.701724e-02	-7.228911e-03
80           	4.747199e-02	1.509071e-02	8.079698e-02	8.787048e-02	-7.073503e-03
81           	4.754999e-02	1.506288e-02	8.101143e-02	8.805571e-02	-7.044279e-03
82           	4.787657e-02	1.500638e-02	8.196786e-02	8.886050e-02	-6.892642e-03
83           	4.792278e-02	1.498828e-02	8.210150e-02	8.897354e-02	-6.872031e-03
84           	4.806305e-02	1.496376e-02	8.258813e-02	8.935711e-02	-6.768985e-03
85           	4.809967e-02	1.495762e-02	8.272758e-02	8.946345e-02	-6.735878e-03
86           	4.817275e-02	1.495338e-02	8.314708e-02	8.974629e-02	-6.599217e-03
87           	4.819810e-02	1.493829e-02	8.326657e-02	8.983139e-02	-6.564816e-03
88           	4.827814e-02	1.486873e-02	8.374296e-02	9.014962e-02	-6.406657e-03
89           	4.831078e-02	1.483782e-02	8.387119e-02	9.024638e-02	-6.375190e-03
90           	4.847670e-02	1.474311e-02	8.451061e-02	9.073201e-02	-6.221396e-03
91           	4.852072e-02	1.471698e-02	8.465239e-02	9.084691e-02	-6.194525e-03
92           	4.857457e-02	1.469197e-02	8.483355e-02	9.099134e-02	-6.157793e-03
93           	4.885243e-02	1.464429e-02	8.573499e-02	9.171992e-02	-5.984937e-03
94           	4.891302e-02	1.462647e-02	8.593900e-02	9.188252e-02	-5.943516e-03
95           	4.913888e-02	1.460392e-02	8.670080e-02	9.248928e-02	-5.788485e-03
96           	4.918961e-02	1.459800e-02	8.689184e-02	9.263553e-02	-5.743686e-03
97           	4.922683e-02	1.459124e-02	8.706526e-02	9.275947e-02	-5.694203e-03
98           	4.928702e-02	1.456308e-02	8.754552e-02	9.305978e-02	-5.514265e-03
99           	4.930685e-02	1.454800e-02	8.767907e-02	9.314639e-02	-5.467318e-03
100          	4.932487e-02	1.451938e-02	8.782178e-02	9.323576e-02	-5.413981e-03
101          	4.939511e-02	1.442672e-02	8.838995e-02	9.359009e-02	-5.200135e-03
102          	4.942373e-02	1.439684e-02	8.853211e-02	9.368978e-02	-5.157673e-03
103          	4.946562e-02	1.436872e-02	8.870024e-02	9.381574e-02	-5.115503e-03
104          	4.952247e-02	1.433889e-02	8.893007e-02	9.398750e-02	-5.057433e-03
105          	4.977703e-02	1.426776e-02	8.988063e-02	9.471734e-02	-4.836716e-03
106          	4.983879e-02	1.424893e-02	9.009795e-02	9.488777e-02	-4.789817e-03
107          	4.989912e-02	1.423538e-02	9.030554e-02	9.505189e-02	-4.746348e-03
108          	4.995755e-02	1.422282e-02	9.053520e-02	9.522514e-02	-4.689947e-03
109          	5.009632e-02	1.422670e-02	9.115645e-02	9.567455e-02	-4.518094e-03
110          	5.015125e-02	1.421669e-02	9.141040e-02	9.585646e-02	-4.446052e-03
111          	5.020383e-02	1.420157e-02	9.166806e-02	9.603786e-02	-4.369797e-03
112          	5.032813e-02	1.414992e-02	9.242947e-02	9.654286e-02	-4.113389e-03
113          	5.035565e-02	1.412725e-02	9.255677e-02	9.663404e-02	-4.077269e-03
114          	5.037634e-02	1.410139e-02	9.265498e-02	9.670384e-02	-4.048852e-03
115          	5.040007e-02	1.407115e-02	9.277037e-02	9.678525e-02	-4.014882e-03
116          	5.042891e-02	1.403438e-02	9.293284e-02	9.689533e-02	-3.962490e-03
117          	5.051487e-02	1.397009e-02	9.342574e-02	9.722774e-02	-3.802001e-03
118          	5.056052e-02	1.393944e-02	9.365300e-02	9.738702e-02	-3.734025e-03
119          	5.061563e-02	1.391148e-02	9.391377e-02	9.757251e-02	-3.658740e-03
120          	5.077191e-02	1.384618e-02	9.475245e-02	9.814813e-02	-3.395680e-03
121          	5.081101e-02	1.383084e-02	9.491027e-02	9.826615e-02	-3.355875e-03
122          	5.084458e-02	1.381833e-02	9.504381e-02	9.836649e-02	-3.322680e-03
123          	5.088436e-02	1.380766e-02	9.520287e-02	9.848579e-02	-3.282922e-03
124          	5.093305e-02	1.379731e-02	9.541616e-02	9.864113e-02	-3.224968e-03
125          	5.107296e-02	1.380106e-02	9.603725e-02	9.909158e-02	-3.054330e-03
126          	5.113863e-02	1.379327e-02	9.630831e-02	9.929279e-02	-2.984475e-03
127          	5.120747e-02	1.377978e-02	9.659183e-02	9.950339e-02	-2.911559e-03
128          	5.137162e-02	1.372157e-02	9.738956e-02	1.000664e-01	-2.676842e-03
129          	5.140561e-02	1.369913e-02	9.753383e-02	1.001725e-01	-2.638700e-03
130          	5.142772e-02	1.367266e-02	9.764559e-02	1.002505e-01	-2.604924e-03
131          	5.144751e-02	1.364066e-02	9.777088e-02	1.003330e-01	-2.562069e-03
132          	5.146992e-02	1.353626e-02	9.813583e-02	1.005378e-01	-2.402006e-03
133          	5.148459e-02	1.351684e-02	9.823933e-02	1.006043e-01	-2.364920e-03
134          	5.149730e-02	1.350432e-02	9.834598e-02	1.006703e-01	-2.324309e-03
135          	5.152021e-02	1.350434e-02	9.866076e-02	1.008506e-01	-2.189828e-03
136          	5.153737e-02	1.349871e-02	9.882367e-02	1.009492e-01	-2.125533e-03
137          	5.156463e-02	1.349046e-02	9.903602e-02	1.010826e-01	-2.046617e-03
138          	5.165774e-02	1.346183e-02	9.972378e-02	1.015196e-01	-1.795853e-03
139          	5.169265e-02	1.344753e-02	9.987767e-02	1.016315e-01	-1.753819e-03
140          	5.172830e-02	1.343072e-02	1.000110e-01	1.017338e-01	-1.722792e-03
141          	5.177392e-02	1.341038e-02	1.001707e-01	1.018593e-01	-1.688571e-03
142          	5.189521e-02	1.336895e-02	1.006263e-01	1.022084e-01	-1.582063e-03
143          	5.195445e-02	1.334693e-02	1.008441e-01	1.023765e-01	-1.532381e-03
144          	5.201248e-02	1.332124e-02	1.010882e-01	1.025566e-01	-1.468353e-03
145          	5.214185e-02	1.324176e-02	1.017787e-01	1.030312e-01	-1.252517e-03
146          	5.215681e-02	1.322356e-02	1.018950e-01	1.031043e-01	-1.209320e-03
147          	5.215642e-02	1.321011e-02	1.019689e-01	1.031408e-01	-1.171989e-03
148          	5.207965e-02	1.318209e-02	1.020927e-01	1.031260e-01	-1.033302e-03
149          	5.207075e-02	1.317709e-02	1.021371e-01	1.031393e-01	-1.002228e-03
150          	5.206357e-02	1.317399e-02	1.021967e-01	1.031619e-01	-9.652245e-04
151          	5.206265e-02	1.317093e-02	1.022977e-01	1.032115e-01	-9.138084e-04
152          	5.206267e-02	1.317092e-02	1.026071e-01	1.033662e-01	-7.591242e-04
153          	5.207841e-02	1.316051e-02	1.027677e-01	1.034622e-01	-6.945796e-04
154          	5.210227e-02	1.314007e-02	1.029519e-01	1.035782e-01	-6.263053e-04
155          	5.214129e-02	1.310669e-02	1.031909e-01	1.037367e-01	-5.458492e-04
156          	5.225637e-02	1.299990e-02	1.038612e-01	1.041870e-01	-3.257661e-04
157          	5.228032e-02	1.298438e-02	1.039636e-01	1.042621e-01	-2.985145e-04
158          	5.229546e-02	1.297604e-02	1.040306e-01	1.043107e-01	-2.801833e-04
159          	5.231034e-02	1.297130e-02	1.041047e-01	1.043627e-01	-2.579999e-04
160          	5.232270e-02	1.296735e-02	1.042014e-01	1.044234e-01	-2.220150e-04
161          	5.234437e-02	1.297127e-02	1.044581e-01	1.045734e-01	-1.153425e-04
162          	5.235110e-02	1.296476e-02	1.045667e-01	1.046344e-01	-6.777466e-05
163          	5.235364e-02	1.295161e-02	1.046887e-01	1.046980e-01	-9.292395e-06
164          	5.230331e-02	1.289641e-02	1.049856e-01	1.047961e-01	1.894967e-04
165          	5.230010e-02	1.288148e-02	1.050467e-01	1.048235e-01	2.232657e-04
166          	5.229739e-02	1.286762e-02	1.050978e-01	1.048463e-01	2.515117e-04
167          	5.229877e-02	1.285290e-02	1.051681e-01	1.048828e-01	2.853055e-04
168          	5.230313e-02	1.283483e-02	1.052732e-01	1.049397e-01	3.334664e-04
169          	5.231701e-02	1.281412e-02	1.054231e-01	1.050285e-01	3.945244e-04
170          	5.235133e-02	1.277845e-02	1.057763e-01	1.052395e-01	5.368401e-04
171          	5.237477e-02	1.276292e-02	1.059264e-01	1.053380e-01	5.884342e-04
172          	5.239319e-02	1.275001e-02	1.060490e-01	1.054177e-01	6.312908e-04
173          	5.241035e-02	1.273814e-02	1.061722e-01	1.054965e-01	6.757591e-04
174          	5.243973e-02	1.270958e-02	1.065084e-01	1.056939e-01	8.144682e-04
175          	5.244610e-02	1.270410e-02	1.065663e-01	1.057293e-01	8.370733e-04
176          	5.244883e-02	1.269960e-02	1.066146e-01	1.057561e-01	8.584650e-04
177          	5.245123e-02	1.269520e-02	1.066736e-01	1.057880e-01	8.855706e-04
178          	5.244940e-02	1.268841e-02	1.067449e-01	1.058218e-01	9.230475e-04
179          	5.244733e-02	1.267853e-02	1.068299e-01	1.058623e-01	9.676178e-04
180          	5.242993e-02	1.265821e-02	1.070054e-01	1.059326e-01	1.072780e-03
181          	5.242618e-02	1.264424e-02	1.070771e-01	1.059648e-01	1.112388e-03
182          	5.242123e-02	1.262723e-02	1.071436e-01	1.059930e-01	1.150581e-03
183          	5.240905e-02	1.257925e-02	1.073602e-01	1.060891e-01	1.271030e-03
184          	5.241202e-02	1.257065e-02	1.074021e-01	1.061131e-01	1.289044e-03
185          	5.242141e-02	1.256540e-02	1.074524e-01	1.061476e-01	1.304773e-03
186          	5.243662e-02	1.256035e-02	1.075287e-01	1.062010e-01	1.327738e-03
187          	5.246277e-02	1.255570e-02	1.076420e-01	1.062838e-01	1.358209e-03
188          	5.249644e-02	1.254997e-02	1.077859e-01	1.063894e-01	1.396521e-03
189          	5.254056e-02	1.254329e-02	1.079589e-01	1.065200e-01	1.438907e-03
190          	5.258797e-02	1.253393e-02	1.081494e-01	1.066626e-01	1.486710e-03
191          	5.267143e-02	1.252277e-02	1.085076e-01	1.069252e-01	1.582373e-03
192          	5.269009e-02	1.251508e-02	1.086117e-01	1.069959e-01	1.615758e-03
193          	5.269168e-02	1.250798e-02	1.086634e-01	1.070234e-01	1.640019e-03
194          	5.267841e-02	1.249891e-02	1.086861e-01	1.070215e-01	1.664649e-03
195          	5.265846e-02	1.248803e-02	1.086983e-01	1.070076e-01	1.690697e-03
196          	5.263394e-02	1.247433e-02	1.087108e-01	1.069894e-01	1.721469e-03
197          	5.261364e-02	1.245953e-02	1.087376e-01	1.069825e-01	1.755171e-03
198          	5.259747e-02	1.244362e-02	1.087830e-01	1.069890e-01	1.794059e-03
199          	5.259113e-02	1.242928e-02	1.088496e-01	1.070160e-01	1.833693e-03
200          	5.259124e-02	1.241720e-02	1.089267e-01	1.070546e-01	1.872102e-03
201          	5.260037e-02	1.240865e-02	1.090110e-01	1.071059e-01	1.905128e-03
202          	5.261324e-02	1.240237e-02	1.090942e-01	1.071603e-01	1.933839e-03
203          	5.263253e-02	1.239827e-02	1.091816e-01	1.072233e-01	1.958260e-03
204          	5.265486e-02	1.239466e-02	1.092738e-01	1.072918e-01	1.982061e-03
205          	5.268319e-02	1.239186e-02	1.093763e-01	1.073714e-01	2.004978e-03
206          	5.271383e-02	1.238851e-02	1.094879e-01	1.074578e-01	2.030118e-03
207          	5.274732e-02	1.238517e-02	1.096065e-01	1.075506e-01	2.055916e-03
208          	5.277776e-02	1.238051e-02	1.097247e-01	1.076401e-01	2.084579e-03
209          	5.280525e-02	1.237518e-02	1.098383e-01	1.077244e-01	2.113872e-03
210          	5.282551e-02	1.237409e-02	1.099502e-01	1.078006e-01	2.149607e-03
211          	5.283774e-02	1.236761e-02	1.100349e-01	1.078552e-01	2.179722e-03
212          	5.284043e-02	1.235912e-02	1.100977e-01	1.078893e-01	2.208399e-03
213          	5.283810e-02	1.234923e-02	1.101440e-01	1.079101e-01	2.233889e-03
214          	5.282929e-02	1.233733e-02	1.101747e-01	1.079166e-01	2.258038e-03
215          	5.281984e-02	1.232606e-02	1.101961e-01	1.079179e-01	2.278224e-03
216          	5.280934e-02	1.231563e-02	1.102130e-01	1.079158e-01	2.297148e-03
217          	5.280287e-02	1.230813e-02	1.102330e-01	1.079194e-01	2.313602e-03
218          	5.279845e-02	1.230252e-02	1.102587e-01	1.079278e-01	2.330874e-03
219          	5.279950e-02	1.229952e-02	1.102945e-01	1.079467e-01	2.347730e-03
220          	5.280329e-02	1.229724e-02	1.103406e-01	1.079736e-01	2.367013e-03
221          	5.281298e-02	1.229600e-02	1.103994e-01	1.080127e-01	2.386745e-03
222          	5.282761e-02	1.229833e-02	1.104819e-01	1.080685e-01	2.413331e-03
223          	5.284617e-02	1.229705e-02	1.105633e-01	1.081278e-01	2.435500e-03
224          	5.286623e-02	1.229377e-02	1.106486e-01	1.081905e-01	2.458067e-03
225          	5.288540e-02	1.229273e-02	1.107256e-01	1.082482e-01	2.477414e-03
226          	5.290838e-02	1.228641e-02	1.108145e-01	1.083156e-01	2.498876e-03
227          	5.293172e-02	1.227939e-02	1.108992e-01	1.083813e-01	2.517893e-03
228          	5.295186e-02	1.227099e-02	1.109773e-01	1.084405e-01	2.536788e-03
229          	5.296978e-02	1.226345e-02	1.110460e-01	1.084928e-01	2.553221e-03
230          	5.298236e-02	1.225603e-02	1.111049e-01	1.085348e-01	2.570071e-03
231          	5.299163e-02	1.225053e-02	1.111541e-01	1.085687e-01	2.585422e-03
232          	5.299511e-02	1.224572e-02	1.111941e-01	1.085922e-01	2.601936e-03
233          	5.299614e-02	1.224273e-02	1.112269e-01	1.086096e-01	2.617314e-03
234          	5.299308e-02	1.223990e-02	1.112541e-01	1.086202e-01	2.633981e-03
235          	5.299027e-02	1.223816e-02	1.112791e-01	1.086298e-01	2.649267e-03
236          	5.298641e-02	1.223599e-02	1.113040e-01	1.086384e-01	2.665570e-03
237          	5.298584e-02	1.223452e-02	1.113324e-01	1.086520e-01	2.680342e-03
238          	5.298704e-02	1.223246e-02	1.113667e-01	1.086704e-01	2.696331e-03
239          	5.299385e-02	1.223357e-02	1.114125e-01	1.087001e-01	2.712405e-03
240          	5.300470e-02	1.223195e-02	1.114680e-01	1.087387e-01	2.729275e-03
241          	5.302236e-02	1.223047e-02	1.115343e-01	1.087895e-01	2.744793e-03
242          	5.304528e-02	1.222744e-02	1.116131e-01	1.088518e-01	2.761293e-03
243          	5.307411e-02	1.222404e-02	1.116996e-01	1.089239e-01	2.775708e-03
244          	5.310409e-02	1.221929e-02	1.117884e-01	1.089983e-01	2.790097e-03
245          	5.313253e-02	1.221516e-02	1.118690e-01	1.090670e-01	2.801973e-03
246          	5.315515e-02	1.221089e-02	1.119384e-01	1.091244e-01	2.814054e-03
247          	5.317309e-02	1.220800e-02	1.119957e-01	1.091710e-01	2.824776e-03
248          	5.318525e-02	1.220520e-02	1.120442e-01	1.092073e-01	2.836848e-03
249          	5.319511e-02	1.220357e-02	1.120871e-01	1.092387e-01	2.848464e-03
250          	5.320218e-02	1.220167e-02	1.121284e-01	1.092664e-01	2.862020e-03
251          	5.321031e-02	1.220065e-02	1.121702e-01	1.092954e-01	2.874800e-03
252          	5.321904e-02	1.219921e-02	1.122156e-01	1.093269e-01	2.888780e-03
253          	5.323188e-02	1.219862e-02	1.122655e-01	1.093646e-01	2.900871e-03
254          	5.324799e-02	1.219757e-02	1.123226e-01	1.094093e-01	2.913328e-03
255          	5.326931e-02	1.219720e-02	1.123859e-01	1.094622e-01	2.923622e-03
256          	5.329383e-02	1.219613e-02	1.124559e-01	1.095218e-01	2.934123e-03
257          	5.332317e-02	1.219534e-02	1.125326e-01	1.095895e-01	2.943126e-03
258          	5.335402e-02	1.219359e-02	1.126133e-01	1.096607e-01	2.952629e-03
259          	5.338870e-02	1.219195e-02	1.126996e-01	1.097385e-01	2.961086e-03
260          	5.342379e-02	1.218932e-02	1.127883e-01	1.098180e-01	2.970380e-03
261          	5.346075e-02	1.218707e-02	1.128788e-01	1.099002e-01	2.978664e-03
262          	5.349528e-02	1.218431e-02	1.129660e-01	1.099783e-01	2.987729e-03
263          	5.352979e-02	1.218238e-02	1.130514e-01	1.100555e-01	2.995885e-03
264          	5.356117e-02	1.218026e-02	1.131325e-01	1.101274e-01	3.005061e-03
265          	5.359139e-02	1.217921e-02	1.132091e-01	1.101960e-01	3.013187e-03
266          	5.361830e-02	1.217799e-02	1.132806e-01	1.102586e-01	3.022029e-03
267          	5.364690e-02	1.217760e-02	1.133536e-01	1.103237e-01	3.029895e-03
268          	5.367498e-02	1.217676e-02	1.134265e-01	1.103882e-01	3.038241e-03
269          	5.370824e-02	1.217645e-02	1.135071e-01	1.104618e-01	3.045319e-03
270          	5.374483e-02	1.217539e-02	1.135952e-01	1.105424e-01	3.052781e-03
271          	5.378889e-02	1.217469e-02	1.136952e-01	1.106365e-01	3.058709e-03
272          	5.383479e-02	1.217319e-02	1.137994e-01	1.107345e-01	3.064890e-03
273          	5.388580e-02	1.217208e-02	1.139110e-01	1.108413e-01	3.069706e-03
274          	5.393477e-02	1.217029e-02	1.140200e-01	1.109448e-01	3.075252e-03
275          	5.398563e-02	1.216898e-02	1.141313e-01	1.110513e-01	3.080008e-03
276          	5.403235e-02	1.216709e-02	1.142367e-01	1.111507e-01	3.085988e-03
277          	5.408033e-02	1.216573e-02	1.143437e-01	1.112522e-01	3.091524e-03
278          	5.412473e-02	1.216382e-02	1.144462e-01	1.113478e-01	3.098362e-03
279          	5.417122e-02	1.216249e-02	1.145516e-01	1.114470e-01	3.104568e-03
280          	5.421518e-02	1.216067e-02	1.146537e-01	1.115421e-01	3.111688e-03
281          	5.426228e-02	1.215952e-02	1.147599e-01	1.116422e-01	3.117669e-03
282          	5.430761e-02	1.215793e-02	1.148635e-01	1.117393e-01	3.124132e-03
283          	5.435714e-02	1.215702e-02	1.149727e-01	1.118435e-01	3.129217e-03
284          	5.440547e-02	1.215564e-02	1.150806e-01	1.119457e-01	3.134812e-03
285          	5.445868e-02	1.215484e-02	1.151959e-01	1.120566e-01	3.139255e-03
286          	5.451062e-02	1.215343e-02	1.153105e-01	1.121659e-01	3.144620e-03
287          	5.456688e-02	1.215249e-02	1.154323e-01	1.122830e-01	3.149273e-03
288          	5.462065e-02	1.215083e-02	1.155519e-01	1.123966e-01	3.155286e-03
289          	5.467697e-02	1.214959e-02	1.156758e-01	1.125149e-01	3.160918e-03
290          	5.472911e-02	1.214763e-02	1.157943e-01	1.126263e-01	3.168050e-03
291          	5.478221e-02	1.214614e-02	1.159140e-01	1.127392e-01	3.174771e-03
292          	5.483068e-02	1.214404e-02	1.160269e-01	1.128441e-01	3.182761e-03
293          	5.488012e-02	1.214250e-02	1.161404e-01	1.129503e-01	3.190058e-03
294          	5.492616e-02	1.214042e-02	1.162491e-01	1.130507e-01	3.198370e-03
295          	5.497440e-02	1.213896e-02	1.163605e-01	1.131546e-01	3.205833e-03
296          	5.502065e-02	1.213694e-02	1.164699e-01	1.132556e-01	3.214326e-03
297          	5.506989e-02	1.213552e-02	1.165839e-01	1.133619e-01	3.222083e-03
298          	5.511691e-02	1.213352e-02	1.166959e-01	1.134648e-01	3.231013e-03
299          	5.516675e-02	1.213206e-02	1.168125e-01	1.135730e-01	3.239503e-03
300          	5.521131e-02	1.213005e-02	1.169205e-01	1.136716e-01	3.248958e-03
301          	5.525874e-02	1.212846e-02	1.170342e-01	1.137758e-01	3.258361e-03
302          	5.530510e-02	1.212605e-02	1.171498e-01	1.138800e-01	3.269823e-03
303          	5.534991e-02	1.212427e-02	1.172607e-01	1.139803e-01	3.280436e-03
304          	5.539163e-02	1.212174e-02	1.173683e-01	1.140758e-01	3.292511e-03
305          	5.543497e-02	1.211961e-02	1.174787e-01	1.141743e-01	3.304367e-03
306          	5.547248e-02	1.211690e-02	1.175788e-01	1.142619e-01	3.316915e-03
307          	5.551018e-02	1.211467e-02	1.176782e-01	1.143493e-01	3.328896e-03
308          	5.554744e-02	1.211146e-02	1.177811e-01	1.144380e-01	3.343089e-03
309          	5.558601e-02	1.210871e-02	1.178857e-01	1.145289e-01	3.356863e-03
310          	5.561907e-02	1.210555e-02	1.179802e-01	1.146092e-01	3.371052e-03
311          	5.564223e-02	1.211127e-02	1.180557e-01	1.146701e-01	3.385628e-03
312          	5.567599e-02	1.210939e-02	1.181581e-01	1.147551e-01	3.403079e-03
313          	5.579526e-02	1.210406e-02	1.184854e-01	1.150379e-01	3.447428e-03
314          	5.580432e-02	1.210121e-02	1.185109e-01	1.150598e-01	3.451133e-03
315          	5.581113e-02	1.210042e-02	1.185299e-01	1.150761e-01	3.453818e-03
316          	5.581555e-02	1.209584e-02	1.185436e-01	1.150873e-01	3.456226e-03
317          	5.582337e-02	1.208952e-02	1.185685e-01	1.151076e-01	3.460875e-03
318          	5.583582e-02	1.207975e-02	1.186187e-01	1.151452e-01	3.473529e-03
319          	5.590779e-02	1.205402e-02	1.188653e-01	1.153404e-01	3.524844e-03
320          	5.592269e-02	1.205190e-02	1.189183e-01	1.153818e-01	3.536438e-03
321          	5.593924e-02	1.205415e-02	1.189694e-01	1.154239e-01	3.545459e-03
322          	5.595944e-02	1.205826e-02	1.190337e-01	1.154763e-01	3.557396e-03
323          	5.599261e-02	1.206446e-02	1.191330e-01	1.155591e-01	3.573883e-03
324          	5.605469e-02	1.207474e-02	1.193262e-01	1.157178e-01	3.608387e-03
325          	5.608998e-02	1.207546e-02	1.194303e-01	1.158051e-01	3.625175e-03
326          	5.611601e-02	1.207096e-02	1.195115e-01	1.158718e-01	3.639760e-03
327          	5.614265e-02	1.206235e-02	1.195939e-01	1.159396e-01	3.654282e-03
328          	5.622576e-02	1.203071e-02	1.198486e-01	1.161501e-01	3.698556e-03
329          	5.623368e-02	1.202757e-02	1.198742e-01	1.161708e-01	3.703396e-03
330          	5.623616e-02	1.202629e-02	1.198881e-01	1.161802e-01	3.707905e-03
331          	5.623858e-02	1.202678e-02	1.199050e-01	1.161911e-01	3.713929e-03
332          	5.624013e-02	1.202740e-02	1.199317e-01	1.162060e-01	3.725692e-03
333          	5.624686e-02	1.202804e-02	1.199841e-01	1.162389e-01	3.745206e-03
334          	5.629223e-02	1.201763e-02	1.202142e-01	1.163994e-01	3.814892e-03
335          	5.630680e-02	1.201524e-02	1.202657e-01	1.164396e-01	3.826025e-03
336          	5.632348e-02	1.201169e-02	1.203144e-01	1.164807e-01	3.833720e-03
337          	5.635734e-02	1.200705e-02	1.203997e-01	1.165572e-01	3.842482e-03
338          	5.642943e-02	1.200243e-02	1.205866e-01	1.167227e-01	3.863845e-03
339          	5.646950e-02	1.200147e-02	1.206907e-01	1.168148e-01	3.875830e-03
340          	5.649719e-02	1.200095e-02	1.207721e-01	1.168832e-01	3.888843e-03
341          	5.652325e-02	1.200047e-02	1.208549e-01	1.169507e-01	3.904198e-03
342          	5.660863e-02	1.199125e-02	1.211395e-01	1.171784e-01	3.961142e-03
343          	5.661729e-02	1.198904e-02	1.211740e-01	1.172043e-01	3.969695e-03
344          	5.661980e-02	1.198557e-02	1.211959e-01	1.172178e-01	3.978157e-03
345          	5.662120e-02	1.198134e-02	1.212208e-01	1.172316e-01	3.989189e-03
346          	5.662432e-02	1.196291e-02	1.213106e-01	1.172796e-01	4.030973e-03
347          	5.662772e-02	1.196201e-02	1.213312e-01	1.172933e-01	4.037902e-03
348          	5.663390e-02	1.196163e-02	1.213602e-01	1.173140e-01	4.046188e-03
349          	5.665158e-02	1.196212e-02	1.214211e-01	1.173621e-01	4.058945e-03
350          	5.676720e-02	1.195801e-02	1.217597e-01	1.176471e-01	4.112669e-03
351          	5.679264e-02	1.195736e-02	1.218325e-01	1.177089e-01	4.123583e-03
352          	5.681060e-02	1.195578e-02	1.218858e-01	1.177535e-01	4.132316e-03
353          	5.682953e-02	1.195413e-02	1.219428e-01	1.178009e-01	4.141869e-03
354          	5.686979e-02	1.195255e-02	1.220803e-01	1.179099e-01	4.170352e-03
355          	5.689142e-02	1.195063e-02	1.221551e-01	1.179690e-01	4.186139e-03
356          	5.691069e-02	1.194712e-02	1.222304e-01	1.180259e-01	4.204505e-03
357          	5.699622e-02	1.193318e-02	1.225183e-01	1.182554e-01	4.262941e-03
358          	5.700570e-02	1.192937e-02	1.225553e-01	1.182833e-01	4.271941e-03
359          	5.701120e-02	1.192725e-02	1.225752e-01	1.182988e-01	4.276397e-03
360          	5.701551e-02	1.192449e-02	1.225966e-01	1.183138e-01	4.282771e-03
361          	5.703400e-02	1.192127e-02	1.226764e-01	1.183722e-01	4.304181e-03
362          	5.704355e-02	1.191899e-02	1.227212e-01	1.184041e-01	4.317041e-03
363          	5.710928e-02	1.191188e-02	1.229449e-01	1.185817e-01	4.363160e-03
364          	5.712316e-02	1.190979e-02	1.229941e-01	1.186202e-01	4.373880e-03
365          	5.713711e-02	1.190860e-02	1.230382e-01	1.186562e-01	4.381974e-03
366          	5.722146e-02	1.190108e-02	1.232847e-01	1.188638e-01	4.420869e-03
367          	5.723410e-02	1.190052e-02	1.233244e-01	1.188963e-01	4.428112e-03
368          	5.724393e-02	1.189977e-02	1.233630e-01	1.189254e-01	4.437545e-03
369          	5.727323e-02	1.190115e-02	1.234779e-01	1.190122e-01	4.465737e-03
370          	5.728630e-02	1.189940e-02	1.235368e-01	1.190547e-01	4.482090e-03
371          	5.734560e-02	1.189038e-02	1.237445e-01	1.192178e-01	4.526655e-03
372          	5.735206e-02	1.188761e-02	1.237717e-01	1.192379e-01	4.533798e-03