# Force coefficients
# liftDir    : (0.000000e+00 1.000000e+00 0.000000e+00)
# dragDir    : (1.000000e+00 0.000000e+00 0.000000e+00)
# pitchAxis  : (0.000000e+00 0.000000e+00 1.000000e+00)
# magUInf    : 5.939300e+01
# lRef       : 1.000000e+00
# Aref       : 1.000000e+00
# CofR       : (0.000000e+00 0.000000e+00 0.000000e+00)
# Time       	Cm           	Cd           	Cl           	Cl(f)        	Cl(r)        
1            	3.099592e+00	7.888113e+00	4.237974e+00	5.218579e+00	-9.806053e-01
2            	2.653966e+00	6.321953e+00	3.744846e+00	4.526389e+00	-7.815433e-01
3            	-3.710760e-01	-6.104849e-01	-4.675111e-01	-6.048315e-01	1.373204e-01
4            	-2.036292e+00	-4.406395e+00	-2.833025e+00	-3.452805e+00	6.197795e-01
5            	-1.735994e+00	-3.541804e+00	-2.542380e+00	-3.007184e+00	4.648040e-01
6            	1.984533e-01	5.520930e-01	1.325804e-01	2.647435e-01	-1.321631e-01
7            	1.507515e+00	2.923149e+00	2.169853e+00	2.592441e+00	-4.225884e-01
8            	1.175912e+00	2.095572e+00	1.840308e+00	2.096066e+00	-2.557577e-01
9            	-5.792108e-02	-2.743411e-01	9.308621e-02	-1.137798e-02	1.044642e-01
10           	-1.024051e+00	-1.699102e+00	-1.494707e+00	-1.771405e+00	2.766974e-01
11           	-8.727962e-01	-1.192956e+00	-1.421300e+00	-1.583446e+00	1.621464e-01
12           	-8.430008e-02	2.400798e-01	-3.059214e-01	-2.372608e-01	-6.866060e-02
13           	5.940364e-01	1.076583e+00	8.409997e-01	1.014536e+00	-1.735366e-01
14           	5.999180e-01	7.875379e-01	9.940050e-01	1.096921e+00	-1.029155e-01
15           	1.759720e-01	-5.497495e-02	4.295772e-01	3.907605e-01	3.881661e-02
16           	-2.747239e-01	-5.639873e-01	-3.342797e-01	-4.418638e-01	1.075840e-01
17           	-3.792404e-01	-3.956809e-01	-6.304955e-01	-6.944881e-01	6.399264e-02
18           	-1.614834e-01	9.763210e-02	-3.623776e-01	-3.426723e-01	-1.970535e-02
19           	1.058109e-01	3.785154e-01	9.623860e-02	1.539302e-01	-5.769160e-02
20           	1.969825e-01	2.828739e-01	3.252732e-01	3.596191e-01	-3.434591e-02
21           	1.257520e-01	4.550866e-03	2.754241e-01	2.634641e-01	1.196002e-02
22           	-4.568517e-03	-1.494032e-01	5.591944e-02	2.339120e-02	3.252824e-02
23           	-7.887483e-02	-9.945121e-02	-1.180024e-01	-1.378761e-01	1.987361e-02
24           	-7.474933e-02	4.834074e-02	-1.568140e-01	-1.531563e-01	-3.657691e-03
25           	-2.071421e-02	1.400437e-01	-7.088014e-02	-5.615428e-02	-1.472586e-02
26           	3.250921e-02	1.192603e-01	4.845515e-02	5.673678e-02	-8.281631e-03
27           	4.192953e-02	3.784749e-02	9.204724e-02	8.795315e-02	4.094096e-03
28           	2.253607e-02	-1.767037e-02	6.531578e-02	5.519395e-02	1.012182e-02
29           	1.211193e-03	-1.088792e-02	1.661669e-02	9.519537e-03	7.097150e-03
30           	-1.232359e-02	3.274079e-02	-2.331981e-02	-2.398349e-02	6.636873e-04
31           	-6.085171e-03	6.274248e-02	-1.657873e-02	-1.437454e-02	-2.204194e-03
32           	5.749638e-03	6.080285e-02	1.049555e-02	1.099741e-02	-5.018634e-04
33           	1.635117e-02	3.918404e-02	3.857717e-02	3.563976e-02	2.937412e-03
34           	1.439863e-02	2.301168e-02	3.822882e-02	3.351304e-02	4.715780e-03
35           	7.131801e-03	2.262267e-02	2.283630e-02	1.854995e-02	4.286350e-03
36           	6.837830e-04	3.215790e-02	7.523501e-03	4.445533e-03	3.077968e-03
37           	2.074941e-04	4.076967e-02	5.216367e-03	2.815678e-03	2.400689e-03
38           	4.527618e-03	4.154021e-02	1.439894e-02	1.172709e-02	2.671852e-03
39           	9.860663e-03	3.682702e-02	2.633158e-02	2.302645e-02	3.305127e-03
40           	1.213407e-02	3.194846e-02	3.189552e-02	2.808183e-02	3.813692e-03
41           	1.058482e-02	3.081072e-02	2.918582e-02	2.517773e-02	4.008094e-03
42           	7.539015e-03	3.265620e-02	2.330315e-02	1.919059e-02	4.112560e-03
43           	5.706401e-03	3.492395e-02	1.989951e-02	1.565616e-02	4.243353e-03
44           	6.336938e-03	3.554071e-02	2.144804e-02	1.706096e-02	4.387080e-03
45           	8.427845e-03	3.460877e-02	2.582701e-02	2.134135e-02	4.485658e-03
46           	1.033852e-02	3.327694e-02	2.982874e-02	2.525288e-02	4.575851e-03
47           	1.075951e-02	3.259710e-02	3.097537e-02	2.624719e-02	4.728178e-03
48           	9.988109e-03	3.272750e-02	2.988286e-02	2.492954e-02	4.953319e-03
49           	9.061994e-03	3.316039e-02	2.850945e-02	2.331672e-02	5.192729e-03
50           	8.939428e-03	3.321831e-02	2.852100e-02	2.319993e-02	5.321073e-03
51           	9.625758e-03	3.324055e-02	3.008766e-02	2.466959e-02	5.418071e-03
52           	1.014046e-02	3.301103e-02	3.120206e-02	2.574149e-02	5.460570e-03
53           	1.077652e-02	3.274468e-02	3.260395e-02	2.707849e-02	5.525458e-03
54           	1.133765e-02	3.245826e-02	3.400722e-02	2.834126e-02	5.665961e-03
55           	1.154941e-02	3.223362e-02	3.481833e-02	2.895857e-02	5.859755e-03
56           	1.146479e-02	3.210642e-02	3.499643e-02	2.896301e-02	6.033422e-03
57           	1.126824e-02	3.205813e-02	3.489104e-02	2.871376e-02	6.177278e-03
58           	1.111784e-02	3.210207e-02	3.478780e-02	2.851174e-02	6.276065e-03
59           	1.119141e-02	3.218220e-02	3.502228e-02	2.870255e-02	6.319732e-03
60           	1.150719e-02	3.218330e-02	3.570371e-02	2.935904e-02	6.344665e-03
61           	1.189394e-02	3.206597e-02	3.657480e-02	3.018134e-02	6.393462e-03
62           	1.222783e-02	3.188578e-02	3.736034e-02	3.090800e-02	6.452345e-03
63           	1.272863e-02	3.161113e-02	3.862748e-02	3.204238e-02	6.585108e-03
64           	1.307896e-02	3.137789e-02	3.962510e-02	3.289151e-02	6.733589e-03
65           	1.320850e-02	3.125279e-02	4.014489e-02	3.328094e-02	6.863948e-03
66           	1.315470e-02	3.124288e-02	4.023041e-02	3.326990e-02	6.960508e-03
67           	1.300827e-02	3.130998e-02	4.005514e-02	3.303584e-02	7.019301e-03
68           	1.288651e-02	3.138359e-02	3.987349e-02	3.282325e-02	7.050231e-03
69           	1.286722e-02	3.141571e-02	3.987872e-02	3.280658e-02	7.072143e-03
70           	1.299703e-02	3.138595e-02	4.019730e-02	3.309567e-02	7.101622e-03
71           	1.328440e-02	3.128037e-02	4.087179e-02	3.372030e-02	7.151491e-03
72           	1.363728e-02	3.112732e-02	4.171613e-02	3.449534e-02	7.220789e-03
73           	1.392523e-02	3.099042e-02	4.240593e-02	3.512819e-02	7.277734e-03
74           	1.429114e-02	3.084850e-02	4.330019e-02	3.594124e-02	7.358954e-03
75           	1.455814e-02	3.075883e-02	4.398949e-02	3.655289e-02	7.436601e-03
76           	1.469069e-02	3.073094e-02	4.439119e-02	3.688629e-02	7.504905e-03
77           	1.469967e-02	3.075125e-02	4.452093e-02	3.696013e-02	7.560792e-03
78           	1.466685e-02	3.072986e-02	4.451307e-02	3.692338e-02	7.589687e-03
79           	1.459219e-02	3.078162e-02	4.444361e-02	3.681400e-02	7.629613e-03
80           	1.455320e-02	3.082340e-02	4.444499e-02	3.677570e-02	7.669290e-03
81           	1.454662e-02	3.079762e-02	4.449019e-02	3.679172e-02	7.698470e-03
82           	1.470616e-02	3.077119e-02	4.491222e-02	3.716227e-02	7.749946e-03
83           	1.497501e-02	3.070457e-02	4.556418e-02	3.775710e-02	7.807081e-03
84           	1.503481e-02	3.065308e-02	4.574738e-02	3.790850e-02	7.838882e-03
85           	1.540721e-02	3.054011e-02	4.661996e-02	3.871720e-02	7.902769e-03
86           	1.548526e-02	3.048384e-02	4.684079e-02	3.890565e-02	7.935137e-03
87           	1.578368e-02	3.039860e-02	4.756989e-02	3.956862e-02	8.001269e-03
88           	1.585053e-02	3.035465e-02	4.777729e-02	3.973918e-02	8.038113e-03
89           	1.609047e-02	3.031325e-02	4.838902e-02	4.028498e-02	8.104046e-03
90           	1.614101e-02	3.029057e-02	4.857418e-02	4.042810e-02	8.146085e-03
91           	1.633439e-02	3.032601e-02	4.912821e-02	4.089850e-02	8.229712e-03
92           	1.633919e-02	3.031285e-02	4.920677e-02	4.094257e-02	8.264201e-03
93           	1.633292e-02	3.029721e-02	4.925996e-02	4.096290e-02	8.297058e-03
94           	1.634160e-02	3.030895e-02	4.940587e-02	4.104454e-02	8.361330e-03
95           	1.632612e-02	3.028616e-02	4.944611e-02	4.104917e-02	8.396941e-03
96           	1.632349e-02	3.026255e-02	4.960389e-02	4.112543e-02	8.478453e-03
97           	1.631691e-02	3.022820e-02	4.966888e-02	4.115134e-02	8.517533e-03
98           	1.638973e-02	3.016083e-02	4.999245e-02	4.138595e-02	8.606496e-03
99           	1.641687e-02	3.011756e-02	5.012215e-02	4.147795e-02	8.644200e-03
100          	1.647412e-02	3.006662e-02	5.031712e-02	4.163267e-02	8.684443e-03
101          	1.676231e-02	2.996585e-02	5.108142e-02	4.230302e-02	8.778400e-03
102          	1.684272e-02	2.992175e-02	5.132601e-02	4.250573e-02	8.820282e-03
103          	1.692213e-02	2.988278e-02	5.157435e-02	4.270931e-02	8.865040e-03
104          	1.715349e-02	2.984464e-02	5.224412e-02	4.327555e-02	8.968574e-03
105          	1.718465e-02	2.982308e-02	5.238773e-02	4.337852e-02	9.009209e-03
106          	1.719197e-02	2.980465e-02	5.248285e-02	4.343339e-02	9.049455e-03
107          	1.717882e-02	2.979999e-02	5.264361e-02	4.350063e-02	9.142981e-03
108          	1.715279e-02	2.978177e-02	5.266874e-02	4.348716e-02	9.181575e-03
109          	1.711694e-02	2.975705e-02	5.268091e-02	4.345740e-02	9.223514e-03
110          	1.702253e-02	2.970872e-02	5.270338e-02	4.337422e-02	9.329159e-03
111          	1.699085e-02	2.967567e-02	5.272253e-02	4.335212e-02	9.370417e-03
112          	1.696999e-02	2.963560e-02	5.276608e-02	4.335303e-02	9.413055e-03
113          	1.696626e-02	2.958629e-02	5.285396e-02	4.339324e-02	9.460715e-03
114          	1.702327e-02	2.947528e-02	5.320833e-02	4.362743e-02	9.580900e-03
115          	1.704906e-02	2.943389e-02	5.334141e-02	4.371977e-02	9.621644e-03
116          	1.708609e-02	2.939684e-02	5.348940e-02	4.383079e-02	9.658615e-03
117          	1.713653e-02	2.936030e-02	5.366674e-02	4.396990e-02	9.696845e-03
118          	1.720169e-02	2.932260e-02	5.388486e-02	4.414412e-02	9.740735e-03
119          	1.740137e-02	2.925643e-02	5.451155e-02	4.465715e-02	9.854406e-03
120          	1.744138e-02	2.923215e-02	5.466440e-02	4.477358e-02	9.890823e-03
121          	1.746086e-02	2.921030e-02	5.476752e-02	4.484462e-02	9.922894e-03
122          	1.746609e-02	2.918646e-02	5.484364e-02	4.488791e-02	9.955724e-03
123          	1.749451e-02	2.913749e-02	5.503808e-02	4.501355e-02	1.002453e-02
124          	1.748274e-02	2.911319e-02	5.507824e-02	4.502186e-02	1.005638e-02
125          	1.746442e-02	2.908539e-02	5.510801e-02	4.501843e-02	1.008958e-02
126          	1.744312e-02	2.905094e-02	5.514147e-02	4.501386e-02	1.012761e-02
127          	1.742053e-02	2.900904e-02	5.518700e-02	4.501403e-02	1.017297e-02
128          	1.736695e-02	2.891210e-02	5.530629e-02	4.502010e-02	1.028619e-02
129          	1.734863e-02	2.888276e-02	5.533304e-02	4.501514e-02	1.031789e-02
130          	1.733926e-02	2.885880e-02	5.536162e-02	4.502007e-02	1.034155e-02
131          	1.734222e-02	2.883492e-02	5.541090e-02	4.504767e-02	1.036323e-02
132          	1.736232e-02	2.880830e-02	5.549934e-02	4.511199e-02	1.038735e-02
133          	1.747507e-02	2.874976e-02	5.585148e-02	4.540081e-02	1.045067e-02
134          	1.751198e-02	2.872582e-02	5.597657e-02	4.550027e-02	1.047631e-02
135          	1.755442e-02	2.870027e-02	5.611630e-02	4.561257e-02	1.050373e-02
136          	1.760403e-02	2.867098e-02	5.627848e-02	4.574327e-02	1.053521e-02
137          	1.775467e-02	2.860923e-02	5.672390e-02	4.611662e-02	1.060728e-02
138          	1.777548e-02	2.858963e-02	5.680783e-02	4.617939e-02	1.062844e-02
139          	1.779961e-02	2.856993e-02	5.688832e-02	4.624377e-02	1.064454e-02
140          	1.780272e-02	2.855065e-02	5.693116e-02	4.626830e-02	1.066286e-02
141          	1.780052e-02	2.852689e-02	5.697531e-02	4.628818e-02	1.068713e-02
142          	1.779240e-02	2.849696e-02	5.702874e-02	4.630677e-02	1.072197e-02
143          	1.777674e-02	2.846010e-02	5.709397e-02	4.632373e-02	1.077024e-02
144          	1.772844e-02	2.837590e-02	5.723356e-02	4.634522e-02	1.088834e-02
145          	1.770828e-02	2.835469e-02	5.724560e-02	4.633108e-02	1.091452e-02
146          	1.769715e-02	2.834021e-02	5.725139e-02	4.632284e-02	1.092855e-02
147          	1.769474e-02	2.832601e-02	5.726692e-02	4.632820e-02	1.093872e-02
148          	1.770357e-02	2.830925e-02	5.730634e-02	4.635674e-02	1.094960e-02
149          	1.772657e-02	2.828837e-02	5.738469e-02	4.641892e-02	1.096577e-02
150          	1.782887e-02	2.824228e-02	5.768837e-02	4.667305e-02	1.101531e-02
151          	1.784815e-02	2.822293e-02	5.777871e-02	4.673750e-02	1.104121e-02
152          	1.785978e-02	2.820356e-02	5.786162e-02	4.679059e-02	1.107103e-02
153          	1.786748e-02	2.818170e-02	5.794743e-02	4.684120e-02	1.110623e-02
154          	1.790234e-02	2.815356e-02	5.808824e-02	4.694646e-02	1.114179e-02
155          	1.791309e-02	2.812271e-02	5.820286e-02	4.701452e-02	1.118834e-02
156          	1.791729e-02	2.808931e-02	5.830670e-02	4.707063e-02	1.123606e-02
157          	1.790932e-02	2.805513e-02	5.838206e-02	4.710035e-02	1.128171e-02
158          	1.788588e-02	2.802279e-02	5.841736e-02	4.709455e-02	1.132280e-02
159          	1.784908e-02	2.799433e-02	5.841489e-02	4.705653e-02	1.135836e-02
160          	1.780346e-02	2.797006e-02	5.838561e-02	4.699626e-02	1.138935e-02
161          	1.775306e-02	2.794921e-02	5.834082e-02	4.692347e-02	1.141735e-02
162          	1.770197e-02	2.793075e-02	5.829119e-02	4.684756e-02	1.144363e-02
163          	1.765483e-02	2.791348e-02	5.824786e-02	4.677876e-02	1.146910e-02
164          	1.761633e-02	2.789612e-02	5.822175e-02	4.672721e-02	1.149454e-02
165          	1.759013e-02	2.787756e-02	5.822122e-02	4.670074e-02	1.152048e-02
166          	1.761395e-02	2.785561e-02	5.830821e-02	4.676805e-02	1.154016e-02
167          	1.762122e-02	2.783139e-02	5.837959e-02	4.681102e-02	1.156858e-02
168          	1.763597e-02	2.780565e-02	5.846824e-02	4.687009e-02	1.159815e-02
169          	1.765217e-02	2.777940e-02	5.856147e-02	4.693291e-02	1.162856e-02
170          	1.766305e-02	2.775398e-02	5.864509e-02	4.698559e-02	1.165950e-02
171          	1.766365e-02	2.773030e-02	5.870880e-02	4.701805e-02	1.169076e-02
172          	1.765133e-02	2.770833e-02	5.874781e-02	4.702523e-02	1.172258e-02
173          	1.762467e-02	2.768768e-02	5.875952e-02	4.700443e-02	1.175508e-02
174          	1.761709e-02	2.766594e-02	5.879774e-02	4.701596e-02	1.178178e-02
175          	1.756864e-02	2.764571e-02	5.876380e-02	4.695054e-02	1.181326e-02
176          	1.751344e-02	2.762678e-02	5.870815e-02	4.686751e-02	1.184064e-02
177          	1.745866e-02	2.760945e-02	5.864228e-02	4.677980e-02	1.186248e-02
178          	1.741011e-02	2.759383e-02	5.857859e-02	4.669940e-02	1.187919e-02
179          	1.737154e-02	2.757966e-02	5.852788e-02	4.663548e-02	1.189240e-02
180          	1.734328e-02	2.756618e-02	5.849517e-02	4.659087e-02	1.190430e-02
181          	1.732344e-02	2.755248e-02	5.848076e-02	4.656382e-02	1.191694e-02
182          	1.730970e-02	2.753789e-02	5.848341e-02	4.655140e-02	1.193201e-02
183          	1.729980e-02	2.752205e-02	5.850086e-02	4.655023e-02	1.195063e-02
184          	1.729143e-02	2.750501e-02	5.852880e-02	4.655583e-02	1.197297e-02
185          	1.728244e-02	2.748720e-02	5.856074e-02	4.656282e-02	1.199793e-02
186          	1.727133e-02	2.746925e-02	5.858967e-02	4.656616e-02	1.202351e-02
187          	1.725727e-02	2.745175e-02	5.861005e-02	4.656229e-02	1.204776e-02
188          	1.726764e-02	2.743577e-02	5.866054e-02	4.659791e-02	1.206263e-02
189          	1.724973e-02	2.741835e-02	5.866611e-02	4.658279e-02	1.208333e-02
190          	1.722393e-02	2.740197e-02	5.865301e-02	4.655043e-02	1.210257e-02
191          	1.718757e-02	2.738707e-02	5.861672e-02	4.649593e-02	1.212079e-02
192          	1.713907e-02	2.737410e-02	5.855508e-02	4.641661e-02	1.213847e-02
193          	1.707976e-02	2.736313e-02	5.847130e-02	4.631541e-02	1.215589e-02
194          	1.701350e-02	2.735372e-02	5.837325e-02	4.620013e-02	1.217313e-02
195          	1.694545e-02	2.734502e-02	5.827116e-02	4.608103e-02	1.219013e-02
196          	1.688093e-02	2.733619e-02	5.817555e-02	4.596871e-02	1.220684e-02
197          	1.682398e-02	2.732660e-02	5.809463e-02	4.587129e-02	1.222334e-02
198          	1.677621e-02	2.731593e-02	5.803227e-02	4.579234e-02	1.223993e-02
199          	1.673697e-02	2.730414e-02	5.798802e-02	4.573097e-02	1.225704e-02
200          	1.670406e-02	2.729145e-02	5.795809e-02	4.568310e-02	1.227499e-02
201          	1.667435e-02	2.727829e-02	5.793635e-02	4.564252e-02	1.229383e-02
202          	1.664428e-02	2.726523e-02	5.791530e-02	4.560193e-02	1.231337e-02
203          	1.661040e-02	2.725277e-02	5.788749e-02	4.555414e-02	1.233335e-02
204          	1.656971e-02	2.724118e-02	5.784664e-02	4.549303e-02	1.235361e-02
205          	1.651985e-02	2.723046e-02	5.778803e-02	4.541386e-02	1.237417e-02
206          	1.645926e-02	2.722046e-02	5.770871e-02	4.531362e-02	1.239509e-02
207          	1.638778e-02	2.721092e-02	5.760816e-02	4.519186e-02	1.241630e-02
208          	1.630735e-02	2.720166e-02	5.748952e-02	4.505211e-02	1.243741e-02
209          	1.622209e-02	2.719260e-02	5.735986e-02	4.490202e-02	1.245784e-02
210          	1.613709e-02	2.718376e-02	5.722834e-02	4.475125e-02	1.247708e-02
211          	1.605646e-02	2.717524e-02	5.710293e-02	4.460792e-02	1.249501e-02
212          	1.598206e-02	2.716709e-02	5.698802e-02	4.447607e-02	1.251194e-02
213          	1.591357e-02	2.715931e-02	5.688421e-02	4.435568e-02	1.252853e-02
214          	1.584935e-02	2.715182e-02	5.678960e-02	4.424414e-02	1.254545e-02
215          	1.578734e-02	2.714449e-02	5.670110e-02	4.413789e-02	1.256321e-02
216          	1.572563e-02	2.713717e-02	5.661528e-02	4.403327e-02	1.258201e-02
217          	1.566267e-02	2.712966e-02	5.652879e-02	4.392707e-02	1.260172e-02
218          	1.559729e-02	2.712183e-02	5.643861e-02	4.381659e-02	1.262202e-02
219          	1.552856e-02	2.711361e-02	5.634211e-02	4.369962e-02	1.264250e-02
220          	1.545583e-02	2.710504e-02	5.623728e-02	4.357448e-02	1.266281e-02
221          	1.537878e-02	2.709626e-02	5.612285e-02	4.344020e-02	1.268265e-02
222          	1.529758e-02	2.708753e-02	5.599868e-02	4.329692e-02	1.270176e-02
223          	1.521309e-02	2.707909e-02	5.586605e-02	4.314611e-02	1.271994e-02
224          	1.512672e-02	2.707121e-02	5.572750e-02	4.299048e-02	1.273703e-02
225          	1.504018e-02	2.706402e-02	5.558641e-02	4.283338e-02	1.275303e-02
226          	1.495499e-02	2.705753e-02	5.544618e-02	4.267808e-02	1.276809e-02
227          	1.487230e-02	2.705160e-02	5.530962e-02	4.252711e-02	1.278251e-02
228          	1.479268e-02	2.704600e-02	5.517863e-02	4.238199e-02	1.279664e-02
229          	1.471618e-02	2.704048e-02	5.505399e-02	4.224318e-02	1.281081e-02
230          	1.464245e-02	2.703481e-02	5.493544e-02	4.211016e-02	1.282527e-02
231          	1.457073e-02	2.702887e-02	5.482173e-02	4.198160e-02	1.284013e-02
232          	1.450008e-02	2.702266e-02	5.471083e-02	4.185549e-02	1.285534e-02
233          	1.442939e-02	2.701627e-02	5.460020e-02	4.172949e-02	1.287071e-02
234          	1.435759e-02	2.700984e-02	5.448711e-02	4.160114e-02	1.288597e-02
235          	1.428374e-02	2.700353e-02	5.436915e-02	4.146831e-02	1.290084e-02
236          	1.420724e-02	2.699747e-02	5.424464e-02	4.132956e-02	1.291508e-02
237          	1.412802e-02	2.699171e-02	5.411300e-02	4.118452e-02	1.292848e-02
238          	1.405909e-02	2.699134e-02	5.399582e-02	4.105700e-02	1.293882e-02
239          	1.395367e-02	2.698595e-02	5.381415e-02	4.086074e-02	1.295341e-02
240          	1.384974e-02	2.698022e-02	5.363305e-02	4.066627e-02	1.296678e-02
241          	1.375525e-02	2.697412e-02	5.346689e-02	4.048869e-02	1.297820e-02
242          	1.367765e-02	2.696797e-02	5.332959e-02	4.034245e-02	1.298714e-02
243          	1.361803e-02	2.696234e-02	5.322401e-02	4.023004e-02	1.299398e-02
244          	1.357022e-02	2.695743e-02	5.314014e-02	4.014029e-02	1.299985e-02
245          	1.352608e-02	2.695322e-02	5.306430e-02	4.005823e-02	1.300607e-02
246          	1.347846e-02	2.694970e-02	5.298441e-02	3.997066e-02	1.301374e-02
247          	1.342198e-02	2.694676e-02	5.289092e-02	3.986744e-02	1.302349e-02
248          	1.335405e-02	2.694403e-02	5.277831e-02	3.974320e-02	1.303511e-02
249          	1.327597e-02	2.694110e-02	5.264707e-02	3.959950e-02	1.304757e-02
250          	1.320877e-02	2.694267e-02	5.253124e-02	3.947439e-02	1.305685e-02
251          	1.309803e-02	2.693900e-02	5.233646e-02	3.926627e-02	1.307020e-02
252          	1.299514e-02	2.693471e-02	5.215091e-02	3.907059e-02	1.308031e-02
253          	1.290969e-02	2.693012e-02	5.199221e-02	3.890580e-02	1.308641e-02
254          	1.284690e-02	2.692576e-02	5.187131e-02	3.878256e-02	1.308875e-02
255          	1.280288e-02	2.692190e-02	5.178285e-02	3.869430e-02	1.308855e-02
256          	1.276888e-02	2.691843e-02	5.171221e-02	3.862499e-02	1.308722e-02
257          	1.273695e-02	2.691525e-02	5.164624e-02	3.856007e-02	1.308616e-02
258          	1.270035e-02	2.691237e-02	5.157454e-02	3.848762e-02	1.308692e-02
259          	1.265392e-02	2.690970e-02	5.148914e-02	3.839849e-02	1.309065e-02
260          	1.259581e-02	2.690708e-02	5.138640e-02	3.828901e-02	1.309739e-02
261          	1.252863e-02	2.690442e-02	5.126894e-02	3.816310e-02	1.310584e-02
262          	1.247242e-02	2.690655e-02	5.116944e-02	3.805714e-02	1.311230e-02
263          	1.238088e-02	2.690448e-02	5.100336e-02	3.788256e-02	1.312080e-02
264          	1.229965e-02	2.690249e-02	5.085015e-02	3.772473e-02	1.312543e-02
265          	1.223518e-02	2.690049e-02	5.072177e-02	3.759606e-02	1.312571e-02
266          	1.218971e-02	2.689837e-02	5.062402e-02	3.750173e-02	1.312230e-02
267          	1.215902e-02	2.689603e-02	5.055093e-02	3.743448e-02	1.311645e-02
268          	1.213633e-02	2.689327e-02	5.049135e-02	3.738201e-02	1.310934e-02
269          	1.211541e-02	2.689003e-02	5.043546e-02	3.733314e-02	1.310232e-02
270          	1.209064e-02	2.688639e-02	5.037532e-02	3.727830e-02	1.309702e-02
271          	1.205786e-02	2.688259e-02	5.030516e-02	3.721044e-02	1.309472e-02
272          	1.201599e-02	2.687896e-02	5.022304e-02	3.712751e-02	1.309553e-02
273          	1.197415e-02	2.688042e-02	5.014486e-02	3.704658e-02	1.309828e-02
274          	1.190645e-02	2.687808e-02	5.001764e-02	3.691527e-02	1.310237e-02
275          	1.184282e-02	2.687622e-02	4.989449e-02	3.679007e-02	1.310442e-02
276          	1.179038e-02	2.687462e-02	4.978716e-02	3.668396e-02	1.310319e-02
277          	1.175377e-02	2.687316e-02	4.970476e-02	3.660615e-02	1.309861e-02
278          	1.172802e-02	2.687407e-02	4.964399e-02	3.655001e-02	1.309397e-02
279          	1.170692e-02	2.687222e-02	4.958092e-02	3.649738e-02	1.308354e-02
280          	1.168967e-02	2.686966e-02	4.952197e-02	3.645065e-02	1.307132e-02
281          	1.167316e-02	2.686624e-02	4.946469e-02	3.640551e-02	1.305918e-02
282          	1.165532e-02	2.686193e-02	4.940864e-02	3.635964e-02	1.304900e-02
283          	1.163546e-02	2.685712e-02	4.935473e-02	3.631282e-02	1.304191e-02
284          	1.161417e-02	2.685257e-02	4.930395e-02	3.626615e-02	1.303780e-02
285          	1.159229e-02	2.684897e-02	4.925571e-02	3.622014e-02	1.303557e-02
286          	1.157018e-02	2.684662e-02	4.920793e-02	3.617414e-02	1.303379e-02
287          	1.154776e-02	2.684547e-02	4.915786e-02	3.612669e-02	1.303117e-02
288          	1.152484e-02	2.684527e-02	4.910304e-02	3.607636e-02	1.302668e-02
289          	1.149698e-02	2.684754e-02	4.903794e-02	3.601595e-02	1.302199e-02
290          	1.146641e-02	2.684812e-02	4.895565e-02	3.594424e-02	1.301141e-02
291          	1.143822e-02	2.684760e-02	4.887402e-02	3.587523e-02	1.299880e-02
292          	1.141574e-02	2.684540e-02	4.880357e-02	3.581752e-02	1.298604e-02
293          	1.140152e-02	2.684183e-02	4.875256e-02	3.577780e-02	1.297476e-02
294          	1.139484e-02	2.683772e-02	4.872022e-02	3.575495e-02	1.296527e-02
295          	1.139324e-02	2.683359e-02	4.869990e-02	3.574319e-02	1.295671e-02
296          	1.139474e-02	2.682967e-02	4.868559e-02	3.573753e-02	1.294805e-02
297          	1.139785e-02	2.682622e-02	4.867291e-02	3.573431e-02	1.293860e-02
298          	1.140093e-02	2.682353e-02	4.865821e-02	3.573003e-02	1.292818e-02
299          	1.140209e-02	2.682178e-02	4.863849e-02	3.572133e-02	1.291715e-02
300          	1.139982e-02	2.682086e-02	4.861234e-02	3.570598e-02	1.290635e-02
301          	1.139377e-02	2.682045e-02	4.858069e-02	3.568411e-02	1.289658e-02
302          	1.137896e-02	2.682175e-02	4.854060e-02	3.564926e-02	1.289134e-02
303          	1.136491e-02	2.682164e-02	4.849438e-02	3.561210e-02	1.288228e-02
304          	1.135207e-02	2.682112e-02	4.845014e-02	3.557714e-02	1.287300e-02
305          	1.134238e-02	2.682004e-02	4.841105e-02	3.554791e-02	1.286314e-02
306          	1.133720e-02	2.681833e-02	4.837917e-02	3.552678e-02	1.285238e-02
307          	1.133706e-02	2.681599e-02	4.835509e-02	3.551461e-02	1.284049e-02
308          	1.134188e-02	2.681313e-02	4.833861e-02	3.551119e-02	1.282742e-02
309          	1.135104e-02	2.680996e-02	4.832925e-02	3.551566e-02	1.281359e-02
310          	1.136315e-02	2.680685e-02	4.832601e-02	3.552615e-02	1.279986e-02
311          	1.137634e-02	2.680420e-02	4.832709e-02	3.553988e-02	1.278721e-02
312          	1.138887e-02	2.680225e-02	4.833009e-02	3.555392e-02	1.277618e-02
313          	1.139964e-02	2.680104e-02	4.833266e-02	3.556597e-02	1.276669e-02
314          	1.140820e-02	2.680051e-02	4.833290e-02	3.557466e-02	1.275825e-02
315          	1.141460e-02	2.680046e-02	4.832956e-02	3.557938e-02	1.275018e-02
316          	1.141916e-02	2.680065e-02	4.832204e-02	3.558018e-02	1.274186e-02
317          	1.142248e-02	2.680081e-02	4.831055e-02	3.557775e-02	1.273280e-02
318          	1.142530e-02	2.680063e-02	4.829614e-02	3.557336e-02	1.272277e-02
319          	1.142847e-02	2.679984e-02	4.828061e-02	3.556878e-02	1.271183e-02
320          	1.143278e-02	2.679834e-02	4.826609e-02	3.556583e-02	1.270026e-02
321          	1.143876e-02	2.679618e-02	4.825446e-02	3.556599e-02	1.268847e-02
322          	1.143631e-02	2.679527e-02	4.823302e-02	3.555282e-02	1.268020e-02
323          	1.144474e-02	2.679261e-02	4.822526e-02	3.555737e-02	1.266788e-02
324          	1.145546e-02	2.678997e-02	4.822255e-02	3.556674e-02	1.265581e-02
325          	1.146849e-02	2.678748e-02	4.822567e-02	3.558132e-02	1.264435e-02
326          	1.148377e-02	2.678523e-02	4.823506e-02	3.560130e-02	1.263375e-02
327          	1.150087e-02	2.678329e-02	4.825004e-02	3.562589e-02	1.262414e-02
328          	1.151911e-02	2.678169e-02	4.826893e-02	3.565357e-02	1.261536e-02
329          	1.153769e-02	2.678046e-02	4.828961e-02	3.568249e-02	1.260712e-02
330          	1.155575e-02	2.677954e-02	4.830976e-02	3.571063e-02	1.259913e-02
331          	1.157247e-02	2.677882e-02	4.832725e-02	3.573609e-02	1.259115e-02
332          	1.158727e-02	2.677813e-02	4.834057e-02	3.575756e-02	1.258301e-02
333          	1.159991e-02	2.677726e-02	4.834907e-02	3.577445e-02	1.257463e-02
334          	1.161049e-02	2.677603e-02	4.835303e-02	3.578700e-02	1.256602e-02
335          	1.161945e-02	2.677435e-02	4.835359e-02	3.579625e-02	1.255734e-02
336          	1.162750e-02	2.677224e-02	4.835250e-02	3.580375e-02	1.254875e-02
337          	1.163550e-02	2.676979e-02	4.835172e-02	3.581136e-02	1.254036e-02
338          	1.164424e-02	2.676716e-02	4.835299e-02	3.582073e-02	1.253225e-02
339          	1.165441e-02	2.676449e-02	4.835762e-02	3.583322e-02	1.252439e-02
340          	1.166648e-02	2.676190e-02	4.836647e-02	3.584972e-02	1.251676e-02
341          	1.168064e-02	2.675949e-02	4.837996e-02	3.587061e-02	1.250934e-02
342          	1.169676e-02	2.675732e-02	4.839795e-02	3.589573e-02	1.250222e-02
343          	1.171436e-02	2.675540e-02	4.841971e-02	3.592422e-02	1.249550e-02
344          	1.173264e-02	2.675370e-02	4.844385e-02	3.595456e-02	1.248928e-02
345          	1.175066e-02	2.675213e-02	4.846852e-02	3.598492e-02	1.248361e-02
346          	1.176756e-02	2.675059e-02	4.849193e-02	3.601353e-02	1.247841e-02
347          	1.178285e-02	2.674895e-02	4.851275e-02	3.603923e-02	1.247353e-02
348          	1.179638e-02	2.674712e-02	4.853038e-02	3.606157e-02	1.246881e-02
349          	1.180831e-02	2.674502e-02	4.854487e-02	3.608075e-02	1.246412e-02
350          	1.181894e-02	2.674258e-02	4.855675e-02	3.609731e-02	1.245944e-02
351          	1.182864e-02	2.673980e-02	4.856695e-02	3.611211e-02	1.245484e-02
352          	1.183784e-02	2.673677e-02	4.857667e-02	3.612617e-02	1.245049e-02
353          	1.184703e-02	2.673361e-02	4.858723e-02	3.614064e-02	1.244659e-02
354          	1.185662e-02	2.673051e-02	4.859977e-02	3.615651e-02	1.244326e-02
355          	1.186692e-02	2.672765e-02	4.861492e-02	3.617438e-02	1.244055e-02
356          	1.187796e-02	2.672513e-02	4.863268e-02	3.619430e-02	1.243838e-02
357          	1.188962e-02	2.672295e-02	4.865259e-02	3.621592e-02	1.243667e-02
358          	1.190159e-02	2.672103e-02	4.867386e-02	3.623853e-02	1.243534e-02
359          	1.191347e-02	2.671921e-02	4.869565e-02	3.626130e-02	1.243435e-02
360          	1.192478e-02	2.671732e-02	4.871704e-02	3.628329e-02	1.243374e-02
361          	1.193502e-02	2.671521e-02	4.873718e-02	3.630361e-02	1.243357e-02
362          	1.194381e-02	2.671280e-02	4.875540e-02	3.632151e-02	1.243390e-02
363          	1.195094e-02	2.671008e-02	4.877135e-02	3.633662e-02	1.243473e-02
364          	1.195647e-02	2.670715e-02	4.878503e-02	3.634898e-02	1.243605e-02
365          	1.196064e-02	2.670414e-02	4.879685e-02	3.635906e-02	1.243778e-02
366          	1.196382e-02	2.670117e-02	4.880739e-02	3.636751e-02	1.243988e-02
367          	1.196638e-02	2.669829e-02	4.881742e-02	3.637509e-02	1.244233e-02
368          	1.196866e-02	2.669555e-02	4.882765e-02	3.638249e-02	1.244516e-02
369          	1.197093e-02	2.669291e-02	4.883875e-02	3.639030e-02	1.244845e-02
370          	1.197333e-02	2.669037e-02	4.885116e-02	3.639890e-02	1.245225e-02
371          	1.197593e-02	2.668790e-02	4.886503e-02	3.640844e-02	1.245659e-02
372          	1.197862e-02	2.668549e-02	4.888007e-02	3.641866e-02	1.246141e-02
373          	1.198119e-02	2.668315e-02	4.889565e-02	3.642901e-02	1.246663e-02