# Force coefficients
# liftDir    : (0.000000e+00 1.000000e+00 0.000000e+00)
# dragDir    : (1.000000e+00 0.000000e+00 0.000000e+00)
# pitchAxis  : (0.000000e+00 0.000000e+00 1.000000e+00)
# magUInf    : 5.939300e+01
# lRef       : 1.000000e+00
# Aref       : 1.000000e+00
# CofR       : (0.000000e+00 0.000000e+00 0.000000e+00)
# Time       	Cm           	Cd           	Cl           	Cl(f)        	Cl(r)        
1            	2.433505e+00	3.872579e+00	1.478089e+00	3.172550e+00	-1.694460e+00
2            	1.983268e+00	3.107176e+00	1.231557e+00	2.599046e+00	-1.367490e+00
3            	-1.259927e-01	-3.347642e-01	1.798152e-02	-1.170020e-01	1.349835e-01
4            	-1.327223e+00	-2.285191e+00	-6.871137e-01	-1.670779e+00	9.836658e-01
5            	-1.053828e+00	-1.789705e+00	-5.360080e-01	-1.321832e+00	7.858237e-01
6            	1.652931e-01	3.046162e-01	1.052441e-01	2.179151e-01	-1.126711e-01
7            	8.606692e-01	1.461942e+00	4.794252e-01	1.100382e+00	-6.209566e-01
8            	6.810098e-01	1.068662e+00	4.068616e-01	8.844406e-01	-4.775791e-01
9            	1.164719e-02	-1.465633e-01	9.169828e-02	5.749633e-02	3.420196e-02
10           	-4.062582e-01	-8.230765e-01	-1.332300e-01	-4.728732e-01	3.396432e-01
11           	-3.039552e-01	-5.568014e-01	-1.125382e-01	-3.602244e-01	2.476861e-01
12           	6.468360e-02	1.324411e-01	4.415169e-02	8.675945e-02	-4.260775e-02
13           	2.922262e-01	4.886718e-01	1.650615e-01	3.747570e-01	-2.096955e-01
14           	2.539986e-01	3.392273e-01	1.780971e-01	3.430472e-01	-1.649500e-01
15           	7.421298e-02	-2.698295e-02	1.232294e-01	1.358277e-01	-1.259830e-02
16           	-7.579300e-02	-2.556069e-01	4.645598e-02	-5.256501e-02	9.902099e-02
17           	-6.561872e-02	-1.697146e-01	2.125271e-02	-5.499236e-02	7.624507e-02
18           	3.225605e-02	4.248027e-02	3.816637e-02	5.133923e-02	-1.317286e-02
19           	1.144781e-01	1.669690e-01	7.403399e-02	1.514951e-01	-7.746108e-02
20           	1.248337e-01	1.267280e-01	1.059567e-01	1.778120e-01	-7.185531e-02
21           	8.043049e-02	1.151048e-02	1.129584e-01	1.369097e-01	-2.395130e-02
22           	3.535880e-02	-5.912815e-02	9.888067e-02	8.479913e-02	1.408154e-02
23           	2.043659e-02	-4.511659e-02	7.355399e-02	5.721358e-02	1.634040e-02
24           	3.533833e-02	1.213503e-02	5.644930e-02	6.356298e-02	-7.113683e-03
25           	6.037688e-02	5.670277e-02	5.587093e-02	8.831235e-02	-3.244142e-02
26           	7.309373e-02	5.292866e-02	7.182751e-02	1.090075e-01	-3.717998e-02
27           	7.108252e-02	2.508882e-02	8.841561e-02	1.152903e-01	-2.687471e-02
28           	6.166355e-02	-2.839509e-03	1.010473e-01	1.121872e-01	-1.113988e-02
29           	5.441222e-02	-4.768931e-03	9.680228e-02	1.028134e-01	-6.011083e-03
30           	5.232624e-02	1.077062e-02	8.177194e-02	9.321221e-02	-1.144027e-02
31           	5.465298e-02	2.726925e-02	6.662008e-02	8.796302e-02	-2.134294e-02
32           	5.875787e-02	2.864859e-02	6.706083e-02	9.228829e-02	-2.522746e-02
33           	6.173575e-02	2.011852e-02	7.763966e-02	1.005556e-01	-2.291592e-02
34           	6.359712e-02	1.133418e-02	9.103534e-02	1.091148e-01	-1.807945e-02
35           	6.306324e-02	9.658431e-03	9.572873e-02	1.109276e-01	-1.519888e-02
36           	6.129635e-02	1.424354e-02	9.013748e-02	1.063651e-01	-1.622761e-02
37           	5.932210e-02	1.919097e-02	8.040791e-02	9.952605e-02	-1.911815e-02
38           	5.888729e-02	2.016206e-02	7.551432e-02	9.664445e-02	-2.113013e-02
39           	5.987969e-02	1.767113e-02	7.757595e-02	9.866766e-02	-2.109171e-02
40           	6.221807e-02	1.463260e-02	8.478598e-02	1.046111e-01	-1.982508e-02
41           	6.399059e-02	1.382212e-02	9.058512e-02	1.092831e-01	-1.869803e-02
42           	6.418174e-02	1.517015e-02	9.119267e-02	1.097781e-01	-1.858541e-02
43           	6.326922e-02	1.693854e-02	8.797858e-02	1.072585e-01	-1.927994e-02
44           	6.227050e-02	1.737509e-02	8.448892e-02	1.045150e-01	-2.002604e-02
45           	6.198987e-02	1.652557e-02	8.347953e-02	1.037296e-01	-2.025010e-02
46           	6.226488e-02	1.559272e-02	8.438943e-02	1.044596e-01	-2.007017e-02
47           	6.368722e-02	1.473556e-02	8.804908e-02	1.077118e-01	-1.966268e-02
48           	6.459405e-02	1.496528e-02	9.019769e-02	1.096929e-01	-1.949520e-02
49           	6.476265e-02	1.545556e-02	9.035703e-02	1.099412e-01	-1.958413e-02
50           	6.456591e-02	1.621007e-02	8.957291e-02	1.093524e-01	-1.977945e-02
51           	6.426087e-02	1.622672e-02	8.873327e-02	1.086275e-01	-1.989424e-02
52           	6.416449e-02	1.584170e-02	8.857987e-02	1.084544e-01	-1.987456e-02
53           	6.421160e-02	1.525051e-02	8.886505e-02	1.086441e-01	-1.977907e-02
54           	6.458429e-02	1.475669e-02	8.989031e-02	1.095294e-01	-1.963913e-02
55           	6.502029e-02	1.478330e-02	9.088794e-02	1.104643e-01	-1.957632e-02
56           	6.535704e-02	1.505016e-02	9.161863e-02	1.111664e-01	-1.954773e-02
57           	6.559530e-02	1.532416e-02	9.215566e-02	1.116731e-01	-1.951747e-02
58           	6.570731e-02	1.543192e-02	9.246761e-02	1.119411e-01	-1.947351e-02
59           	6.572020e-02	1.535653e-02	9.260022e-02	1.120203e-01	-1.942009e-02
60           	6.567390e-02	1.514406e-02	9.263954e-02	1.119937e-01	-1.935413e-02
61           	6.563728e-02	1.488315e-02	9.271074e-02	1.119926e-01	-1.928191e-02
62           	6.567760e-02	1.464064e-02	9.299725e-02	1.121762e-01	-1.917898e-02
63           	6.585939e-02	1.456952e-02	9.360264e-02	1.126607e-01	-1.905807e-02
64           	6.603405e-02	1.461867e-02	9.409977e-02	1.130839e-01	-1.898417e-02
65           	6.632823e-02	1.475447e-02	9.492054e-02	1.137885e-01	-1.886796e-02
66           	6.651340e-02	1.480757e-02	9.545782e-02	1.142423e-01	-1.878448e-02
67           	6.660548e-02	1.478540e-02	9.577592e-02	1.144934e-01	-1.871752e-02
68           	6.666640e-02	1.470428e-02	9.606806e-02	1.147004e-01	-1.863237e-02
69           	6.669761e-02	1.456995e-02	9.635981e-02	1.148775e-01	-1.851771e-02
70           	6.671661e-02	1.443753e-02	9.664129e-02	1.150373e-01	-1.839596e-02
71           	6.676467e-02	1.430691e-02	9.708484e-02	1.153071e-01	-1.822225e-02
72           	6.686524e-02	1.426278e-02	9.759314e-02	1.156618e-01	-1.806867e-02
73           	6.692275e-02	1.426837e-02	9.775930e-02	1.158024e-01	-1.804311e-02
74           	6.704259e-02	1.430305e-02	9.818037e-02	1.161328e-01	-1.795240e-02
75           	6.723471e-02	1.434576e-02	9.887132e-02	1.166704e-01	-1.779905e-02
76           	6.728917e-02	1.433525e-02	9.906378e-02	1.168211e-01	-1.775728e-02
77           	6.741045e-02	1.425920e-02	9.969366e-02	1.172573e-01	-1.756362e-02
78           	6.745766e-02	1.421771e-02	9.992384e-02	1.174196e-01	-1.749574e-02
79           	6.753558e-02	1.405834e-02	1.006313e-01	1.178512e-01	-1.721995e-02
80           	6.756636e-02	1.401904e-02	1.008226e-01	1.179777e-01	-1.715505e-02
81           	6.759048e-02	1.394882e-02	1.011961e-01	1.181885e-01	-1.699244e-02
82           	6.763243e-02	1.392730e-02	1.014449e-01	1.183549e-01	-1.691000e-02
83           	6.770692e-02	1.390101e-02	1.021005e-01	1.187572e-01	-1.665665e-02
84           	6.776044e-02	1.389639e-02	1.023074e-01	1.189141e-01	-1.660675e-02
85           	6.781644e-02	1.388979e-02	1.025186e-01	1.190757e-01	-1.655716e-02
86           	6.792408e-02	1.386291e-02	1.031368e-01	1.194925e-01	-1.635570e-02
87           	6.796785e-02	1.384403e-02	1.033515e-01	1.196436e-01	-1.629210e-02
88           	6.801112e-02	1.381395e-02	1.036248e-01	1.198235e-01	-1.619872e-02
89           	6.806836e-02	1.372365e-02	1.043057e-01	1.202212e-01	-1.591553e-02
90           	6.812153e-02	1.367733e-02	1.046833e-01	1.204632e-01	-1.577988e-02
91           	6.821366e-02	1.357389e-02	1.055080e-01	1.209677e-01	-1.545965e-02
92           	6.824377e-02	1.355761e-02	1.056522e-01	1.210698e-01	-1.541769e-02
93           	6.826860e-02	1.354848e-02	1.057637e-01	1.211505e-01	-1.538673e-02
94           	6.829287e-02	1.354199e-02	1.059122e-01	1.212490e-01	-1.533678e-02
95           	6.830551e-02	1.352831e-02	1.064144e-01	1.215127e-01	-1.509830e-02
96           	6.834565e-02	1.351171e-02	1.066891e-01	1.216902e-01	-1.500110e-02
97           	6.843386e-02	1.344980e-02	1.074471e-01	1.221574e-01	-1.471030e-02
98           	6.846909e-02	1.342733e-02	1.076250e-01	1.222816e-01	-1.465658e-02
99           	6.850844e-02	1.339980e-02	1.078286e-01	1.224227e-01	-1.459416e-02
100          	6.855233e-02	1.336141e-02	1.081220e-01	1.226133e-01	-1.449134e-02
101          	6.863873e-02	1.325178e-02	1.090042e-01	1.231408e-01	-1.413662e-02
102          	6.868017e-02	1.322170e-02	1.092853e-01	1.233228e-01	-1.403752e-02
103          	6.872589e-02	1.319805e-02	1.095715e-01	1.235116e-01	-1.394015e-02
104          	6.879773e-02	1.315793e-02	1.102521e-01	1.239238e-01	-1.367170e-02
105          	6.881766e-02	1.314717e-02	1.104025e-01	1.240189e-01	-1.361639e-02
106          	6.882709e-02	1.313700e-02	1.105373e-01	1.240957e-01	-1.355844e-02
107          	6.882892e-02	1.312159e-02	1.107229e-01	1.241904e-01	-1.346748e-02
108          	6.880548e-02	1.306923e-02	1.113195e-01	1.244652e-01	-1.314574e-02
109          	6.882992e-02	1.304697e-02	1.115375e-01	1.245987e-01	-1.306118e-02
110          	6.887592e-02	1.301917e-02	1.118195e-01	1.247857e-01	-1.296616e-02
111          	6.901611e-02	1.293795e-02	1.126840e-01	1.253581e-01	-1.267413e-02
112          	6.905316e-02	1.291752e-02	1.128849e-01	1.254956e-01	-1.261074e-02
113          	6.908472e-02	1.289798e-02	1.130842e-01	1.256268e-01	-1.254260e-02
114          	6.911339e-02	1.287384e-02	1.133395e-01	1.257831e-01	-1.244365e-02
115          	6.915805e-02	1.280276e-02	1.140880e-01	1.262020e-01	-1.211407e-02
116          	6.917808e-02	1.278063e-02	1.143084e-01	1.263323e-01	-1.202386e-02
117          	6.919602e-02	1.275944e-02	1.145211e-01	1.264566e-01	-1.193545e-02
118          	6.921275e-02	1.273488e-02	1.147809e-01	1.266032e-01	-1.182231e-02
119          	6.922678e-02	1.267082e-02	1.155008e-01	1.269772e-01	-1.147640e-02
120          	6.924373e-02	1.265607e-02	1.156751e-01	1.270813e-01	-1.140616e-02
121          	6.926121e-02	1.264430e-02	1.158294e-01	1.271759e-01	-1.134651e-02
122          	6.928405e-02	1.262916e-02	1.160326e-01	1.273003e-01	-1.126777e-02
123          	6.931696e-02	1.260506e-02	1.163396e-01	1.274868e-01	-1.114717e-02
124          	6.940768e-02	1.252601e-02	1.172498e-01	1.280326e-01	-1.078279e-02
125          	6.944551e-02	1.250081e-02	1.175092e-01	1.282001e-01	-1.069088e-02
126          	6.947507e-02	1.247946e-02	1.177138e-01	1.283320e-01	-1.061817e-02
127          	6.949712e-02	1.245717e-02	1.179265e-01	1.284604e-01	-1.053389e-02
128          	6.950965e-02	1.243097e-02	1.181885e-01	1.286039e-01	-1.041538e-02
129          	6.949404e-02	1.236011e-02	1.188713e-01	1.289297e-01	-1.005841e-02
130          	6.950337e-02	1.234414e-02	1.190526e-01	1.290297e-01	-9.977057e-03
131          	6.951687e-02	1.233076e-02	1.192193e-01	1.291265e-01	-9.907203e-03
132          	6.953504e-02	1.231506e-02	1.194252e-01	1.292476e-01	-9.822461e-03
133          	6.955723e-02	1.229369e-02	1.197033e-01	1.294089e-01	-9.705552e-03
134          	6.960030e-02	1.223031e-02	1.204383e-01	1.298194e-01	-9.381145e-03
135          	6.962306e-02	1.221248e-02	1.206344e-01	1.299402e-01	-9.305884e-03
136          	6.964655e-02	1.219509e-02	1.208165e-01	1.300548e-01	-9.238301e-03
137          	6.967390e-02	1.217203e-02	1.210535e-01	1.302006e-01	-9.147157e-03
138          	6.971967e-02	1.210296e-02	1.217356e-01	1.305875e-01	-8.851887e-03
139          	6.973500e-02	1.208964e-02	1.218968e-01	1.306834e-01	-8.786609e-03
140          	6.974525e-02	1.207910e-02	1.220480e-01	1.307693e-01	-8.721240e-03
141          	6.973634e-02	1.204600e-02	1.224544e-01	1.309635e-01	-8.509134e-03
142          	6.974018e-02	1.203389e-02	1.225906e-01	1.310355e-01	-8.444870e-03
143          	6.973984e-02	1.201774e-02	1.227453e-01	1.311125e-01	-8.367214e-03
144          	6.973441e-02	1.199325e-02	1.229602e-01	1.312145e-01	-8.254337e-03
145          	6.970034e-02	1.192850e-02	1.234823e-01	1.314415e-01	-7.959168e-03
146          	6.971148e-02	1.190614e-02	1.236951e-01	1.315590e-01	-7.863936e-03
147          	6.973316e-02	1.188735e-02	1.239043e-01	1.316853e-01	-7.781026e-03
148          	6.976422e-02	1.186821e-02	1.241500e-01	1.318392e-01	-7.689231e-03
149          	6.984426e-02	1.181755e-02	1.248161e-01	1.322523e-01	-7.436191e-03
150          	6.986857e-02	1.180697e-02	1.249748e-01	1.323560e-01	-7.381187e-03
151          	6.988812e-02	1.179777e-02	1.251185e-01	1.324474e-01	-7.328868e-03
152          	6.990410e-02	1.178538e-02	1.252946e-01	1.325514e-01	-7.256790e-03
153          	6.990686e-02	1.173964e-02	1.257719e-01	1.327928e-01	-7.020905e-03
154          	6.990998e-02	1.172409e-02	1.259158e-01	1.328679e-01	-6.952104e-03
155          	6.990405e-02	1.170649e-02	1.260479e-01	1.329280e-01	-6.880105e-03
156          	6.988631e-02	1.168163e-02	1.262122e-01	1.329924e-01	-6.780232e-03
157          	6.980705e-02	1.161189e-02	1.266057e-01	1.331099e-01	-6.504189e-03
158          	6.980671e-02	1.159984e-02	1.267182e-01	1.331658e-01	-6.447611e-03
159          	6.981599e-02	1.159197e-02	1.268322e-01	1.332321e-01	-6.399880e-03
160          	6.983619e-02	1.158335e-02	1.269969e-01	1.333346e-01	-6.337733e-03
161          	6.989135e-02	1.155910e-02	1.274627e-01	1.336227e-01	-6.159992e-03
162          	6.992303e-02	1.154722e-02	1.276646e-01	1.337553e-01	-6.090746e-03
163          	6.995697e-02	1.153157e-02	1.278890e-01	1.339015e-01	-6.012448e-03
164          	7.001019e-02	1.148133e-02	1.284277e-01	1.342240e-01	-5.796348e-03
165          	7.001991e-02	1.147011e-02	1.285436e-01	1.342917e-01	-5.748113e-03
166          	7.001929e-02	1.145896e-02	1.286381e-01	1.343383e-01	-5.700259e-03
167          	7.000698e-02	1.144353e-02	1.287437e-01	1.343788e-01	-5.635155e-03
168          	6.992492e-02	1.138743e-02	1.289908e-01	1.344203e-01	-5.429538e-03
169          	6.991818e-02	1.137475e-02	1.290832e-01	1.344598e-01	-5.376587e-03
170          	6.991969e-02	1.136282e-02	1.291932e-01	1.345163e-01	-5.323117e-03
171          	6.992117e-02	1.133262e-02	1.294821e-01	1.346622e-01	-5.180136e-03
172          	6.993447e-02	1.132346e-02	1.296098e-01	1.347394e-01	-5.129572e-03
173          	6.995249e-02	1.131385e-02	1.297613e-01	1.348331e-01	-5.071863e-03
174          	6.997573e-02	1.130009e-02	1.299624e-01	1.349569e-01	-4.994540e-03
175          	7.002176e-02	1.125695e-02	1.304511e-01	1.352473e-01	-4.796201e-03
176          	7.003339e-02	1.124777e-02	1.305600e-01	1.353134e-01	-4.753403e-03
177          	7.004050e-02	1.123996e-02	1.306445e-01	1.353628e-01	-4.718241e-03
178          	7.004508e-02	1.122974e-02	1.307435e-01	1.354168e-01	-4.673329e-03
179          	7.004757e-02	1.121408e-02	1.308856e-01	1.354904e-01	-4.604758e-03
180          	7.003525e-02	1.116867e-02	1.312226e-01	1.356466e-01	-4.423955e-03
181          	7.003810e-02	1.115460e-02	1.313506e-01	1.357134e-01	-4.362818e-03
182          	7.004237e-02	1.114270e-02	1.314578e-01	1.357713e-01	-4.313442e-03
183          	7.004768e-02	1.112994e-02	1.315711e-01	1.358332e-01	-4.262154e-03
184          	7.004370e-02	1.109416e-02	1.318078e-01	1.359476e-01	-4.139788e-03
185          	7.004521e-02	1.108921e-02	1.318671e-01	1.359788e-01	-4.111641e-03
186          	7.004670e-02	1.108523e-02	1.319277e-01	1.360106e-01	-4.082830e-03
187          	7.004980e-02	1.107942e-02	1.320196e-01	1.360596e-01	-4.039980e-03
188          	7.005717e-02	1.106921e-02	1.321670e-01	1.361406e-01	-3.973695e-03
189          	7.008294e-02	1.103470e-02	1.325520e-01	1.363589e-01	-3.806935e-03
190          	7.009450e-02	1.102597e-02	1.326576e-01	1.364233e-01	-3.765719e-03
191          	7.010582e-02	1.101802e-02	1.327389e-01	1.364753e-01	-3.736377e-03
192          	7.011916e-02	1.100762e-02	1.328297e-01	1.365340e-01	-3.704301e-03
193          	7.013726e-02	1.097779e-02	1.330269e-01	1.366507e-01	-3.623793e-03
194          	7.014194e-02	1.096914e-02	1.331042e-01	1.366940e-01	-3.589852e-03
195          	7.014347e-02	1.096129e-02	1.331876e-01	1.367373e-01	-3.549675e-03
196          	7.014319e-02	1.095252e-02	1.332926e-01	1.367895e-01	-3.496910e-03
197          	7.013042e-02	1.092880e-02	1.335120e-01	1.368864e-01	-3.374440e-03
198          	7.012918e-02	1.092440e-02	1.335617e-01	1.369100e-01	-3.348324e-03
199          	7.012975e-02	1.092111e-02	1.335985e-01	1.369290e-01	-3.330506e-03
200          	7.013456e-02	1.091690e-02	1.336486e-01	1.369589e-01	-3.310250e-03
201          	7.014856e-02	1.090982e-02	1.337392e-01	1.370182e-01	-3.278953e-03
202          	7.019950e-02	1.088545e-02	1.340236e-01	1.372113e-01	-3.187696e-03
203          	7.021706e-02	1.087924e-02	1.341217e-01	1.372779e-01	-3.156218e-03
204          	7.023287e-02	1.087390e-02	1.342131e-01	1.373394e-01	-3.126308e-03
205          	7.024901e-02	1.086780e-02	1.343143e-01	1.374062e-01	-3.091852e-03
206          	7.026485e-02	1.085997e-02	1.344265e-01	1.374781e-01	-3.051607e-03
207          	7.027819e-02	1.085082e-02	1.345379e-01	1.375472e-01	-3.009229e-03
208          	7.028826e-02	1.084134e-02	1.346390e-01	1.376077e-01	-2.968786e-03
209          	7.029608e-02	1.083258e-02	1.347261e-01	1.376591e-01	-2.933043e-03
210          	7.030346e-02	1.082522e-02	1.348018e-01	1.377043e-01	-2.902583e-03
211          	7.031202e-02	1.081944e-02	1.348713e-01	1.377477e-01	-2.876362e-03
212          	7.032254e-02	1.081507e-02	1.349395e-01	1.377923e-01	-2.852764e-03
213          	7.033588e-02	1.081147e-02	1.350130e-01	1.378424e-01	-2.829382e-03
214          	7.035254e-02	1.080808e-02	1.350955e-01	1.379003e-01	-2.804806e-03
215          	7.037309e-02	1.080434e-02	1.351901e-01	1.379682e-01	-2.778036e-03
216          	7.039755e-02	1.079987e-02	1.352967e-01	1.380459e-01	-2.749194e-03
217          	7.042430e-02	1.079472e-02	1.354083e-01	1.381284e-01	-2.720169e-03
218          	7.045077e-02	1.078919e-02	1.355152e-01	1.382084e-01	-2.693179e-03
219          	7.047465e-02	1.078381e-02	1.356098e-01	1.382795e-01	-2.669754e-03
220          	7.049535e-02	1.077889e-02	1.356913e-01	1.383410e-01	-2.649697e-03
221          	7.051338e-02	1.077463e-02	1.357624e-01	1.383946e-01	-2.632178e-03
222          	7.053004e-02	1.077101e-02	1.358282e-01	1.384442e-01	-2.615918e-03
223          	7.054660e-02	1.076789e-02	1.358934e-01	1.384933e-01	-2.599878e-03
224          	7.056397e-02	1.076511e-02	1.359611e-01	1.385445e-01	-2.583418e-03
225          	7.058243e-02	1.076252e-02	1.360319e-01	1.385984e-01	-2.566493e-03
226          	7.060193e-02	1.075997e-02	1.361051e-01	1.386545e-01	-2.549407e-03
227          	7.062225e-02	1.075737e-02	1.361791e-01	1.387118e-01	-2.532700e-03
228          	7.064053e-02	1.075522e-02	1.362460e-01	1.387635e-01	-2.517551e-03
229          	7.066233e-02	1.075256e-02	1.363191e-01	1.388219e-01	-2.502778e-03
230          	7.068510e-02	1.074993e-02	1.363916e-01	1.388809e-01	-2.489282e-03
231          	7.070920e-02	1.074735e-02	1.364645e-01	1.389415e-01	-2.476941e-03
232          	7.073528e-02	1.074481e-02	1.365394e-01	1.390050e-01	-2.465570e-03
233          	7.076313e-02	1.074236e-02	1.366159e-01	1.390711e-01	-2.455196e-03
234          	7.079274e-02	1.074007e-02	1.366941e-01	1.391398e-01	-2.445687e-03
235          	7.082372e-02	1.073798e-02	1.367735e-01	1.392105e-01	-2.436973e-03
236          	7.085552e-02	1.073618e-02	1.368531e-01	1.392821e-01	-2.428971e-03
237          	7.088729e-02	1.073476e-02	1.369314e-01	1.393530e-01	-2.421596e-03
238          	7.091893e-02	1.073374e-02	1.370085e-01	1.394232e-01	-2.414680e-03
239          	7.095073e-02	1.073307e-02	1.370853e-01	1.394934e-01	-2.408078e-03
240          	7.098253e-02	1.073272e-02	1.371615e-01	1.395633e-01	-2.401763e-03
241          	7.101472e-02	1.073258e-02	1.372379e-01	1.396337e-01	-2.395776e-03
242          	7.104796e-02	1.073255e-02	1.373155e-01	1.397057e-01	-2.390220e-03
243          	7.108343e-02	1.073254e-02	1.373964e-01	1.397816e-01	-2.385222e-03
244          	7.112131e-02	1.073254e-02	1.374805e-01	1.398616e-01	-2.381045e-03
245          	7.116019e-02	1.073265e-02	1.375646e-01	1.399425e-01	-2.377911e-03
246          	7.120037e-02	1.073297e-02	1.376491e-01	1.400249e-01	-2.375817e-03
247          	7.124077e-02	1.073346e-02	1.377321e-01	1.401068e-01	-2.374696e-03
248          	7.128455e-02	1.073450e-02	1.378203e-01	1.401947e-01	-2.374383e-03
249          	7.132983e-02	1.073598e-02	1.379103e-01	1.402850e-01	-2.374672e-03
250          	7.137893e-02	1.073786e-02	1.380068e-01	1.403823e-01	-2.375518e-03
251          	7.143169e-02	1.074012e-02	1.381097e-01	1.404866e-01	-2.376815e-03
252          	7.148630e-02	1.074246e-02	1.382157e-01	1.405942e-01	-2.378440e-03
253          	7.154368e-02	1.074525e-02	1.383265e-01	1.407070e-01	-2.380410e-03
254          	7.160126e-02	1.074819e-02	1.384372e-01	1.408199e-01	-2.382660e-03
255          	7.165732e-02	1.075112e-02	1.385443e-01	1.409295e-01	-2.385162e-03
256          	7.171230e-02	1.075399e-02	1.386486e-01	1.410366e-01	-2.388020e-03
257          	7.176868e-02	1.075683e-02	1.387544e-01	1.411459e-01	-2.391483e-03
258          	7.182515e-02	1.075940e-02	1.388593e-01	1.412548e-01	-2.395526e-03
259          	7.188693e-02	1.076243e-02	1.389728e-01	1.413733e-01	-2.400547e-03
260          	7.194992e-02	1.076565e-02	1.390875e-01	1.414937e-01	-2.406180e-03
261          	7.201114e-02	1.076868e-02	1.391982e-01	1.416102e-01	-2.412036e-03
262          	7.207951e-02	1.077231e-02	1.393213e-01	1.417402e-01	-2.418867e-03
263          	7.214916e-02	1.077607e-02	1.394464e-01	1.418724e-01	-2.425940e-03
264          	7.222005e-02	1.077989e-02	1.395739e-01	1.420070e-01	-2.433121e-03
265          	7.229218e-02	1.078376e-02	1.397037e-01	1.421440e-01	-2.440321e-03
266          	7.236442e-02	1.078764e-02	1.398340e-01	1.422814e-01	-2.447411e-03
267          	7.243656e-02	1.079120e-02	1.399642e-01	1.424187e-01	-2.454470e-03
268          	7.251483e-02	1.079523e-02	1.401057e-01	1.425677e-01	-2.461983e-03
269          	7.259342e-02	1.079911e-02	1.402479e-01	1.427174e-01	-2.469473e-03
270          	7.266735e-02	1.080217e-02	1.403816e-01	1.428582e-01	-2.476531e-03
271          	7.274913e-02	1.080533e-02	1.405298e-01	1.430140e-01	-2.484245e-03
272          	7.282847e-02	1.080800e-02	1.406736e-01	1.431653e-01	-2.491681e-03
273          	7.290426e-02	1.081020e-02	1.408111e-01	1.433098e-01	-2.498697e-03
274          	7.297565e-02	1.081209e-02	1.409409e-01	1.434461e-01	-2.505194e-03
275          	7.304775e-02	1.081357e-02	1.410722e-01	1.435838e-01	-2.511671e-03
276          	7.312554e-02	1.081538e-02	1.412144e-01	1.437328e-01	-2.518319e-03
277          	7.320665e-02	1.081723e-02	1.413636e-01	1.438884e-01	-2.524869e-03
278          	7.328892e-02	1.081898e-02	1.415159e-01	1.440469e-01	-2.530978e-03
279          	7.336402e-02	1.082006e-02	1.416558e-01	1.441919e-01	-2.536104e-03
280          	7.344847e-02	1.082118e-02	1.418150e-01	1.443559e-01	-2.540991e-03
281          	7.352918e-02	1.082188e-02	1.419684e-01	1.445134e-01	-2.544954e-03
282          	7.360463e-02	1.082205e-02	1.421132e-01	1.446613e-01	-2.548008e-03
283          	7.367107e-02	1.082145e-02	1.422416e-01	1.447919e-01	-2.550267e-03
284          	7.374346e-02	1.082043e-02	1.423829e-01	1.449349e-01	-2.551983e-03
285          	7.381480e-02	1.081894e-02	1.425235e-01	1.450765e-01	-2.553056e-03
286          	7.388795e-02	1.081693e-02	1.426689e-01	1.452224e-01	-2.553493e-03
287          	7.395788e-02	1.081435e-02	1.428089e-01	1.453623e-01	-2.553412e-03
288          	7.403134e-02	1.081159e-02	1.429580e-01	1.455103e-01	-2.552340e-03
289          	7.410079e-02	1.080889e-02	1.431006e-01	1.456511e-01	-2.550500e-03
290          	7.416528e-02	1.080629e-02	1.432346e-01	1.457826e-01	-2.547968e-03
291          	7.422559e-02	1.080368e-02	1.433617e-01	1.459065e-01	-2.544731e-03
292          	7.428187e-02	1.080067e-02	1.434817e-01	1.460227e-01	-2.541027e-03
293          	7.434284e-02	1.079722e-02	1.436143e-01	1.461500e-01	-2.535669e-03
294          	7.440663e-02	1.079303e-02	1.437556e-01	1.462844e-01	-2.528847e-03
295          	7.446829e-02	1.078836e-02	1.438944e-01	1.464155e-01	-2.521077e-03
296          	7.452607e-02	1.078339e-02	1.440267e-01	1.465394e-01	-2.512699e-03
297          	7.457418e-02	1.077858e-02	1.441383e-01	1.466433e-01	-2.505040e-03
298          	7.462633e-02	1.077307e-02	1.442621e-01	1.467574e-01	-2.495295e-03
299          	7.467532e-02	1.076750e-02	1.443808e-01	1.468657e-01	-2.484933e-03
300          	7.472265e-02	1.076169e-02	1.444977e-01	1.469715e-01	-2.473776e-03
301          	7.476938e-02	1.075553e-02	1.446155e-01	1.470771e-01	-2.461644e-03
302          	7.487694e-02	1.074114e-02	1.448792e-01	1.473165e-01	-2.437333e-03
303          	7.489138e-02	1.073922e-02	1.449182e-01	1.473505e-01	-2.432296e-03
304          	7.490130e-02	1.073786e-02	1.449480e-01	1.473753e-01	-2.427294e-03
305          	7.491366e-02	1.073571e-02	1.449880e-01	1.474077e-01	-2.419673e-03
306          	7.493611e-02	1.073098e-02	1.450613e-01	1.474667e-01	-2.405477e-03
307          	7.502425e-02	1.071267e-02	1.453285e-01	1.476885e-01	-2.360014e-03
308          	7.505052e-02	1.070785e-02	1.454053e-01	1.477531e-01	-2.347889e-03
309          	7.507599e-02	1.070386e-02	1.454747e-01	1.478134e-01	-2.338616e-03
310          	7.510813e-02	1.069928e-02	1.455595e-01	1.478879e-01	-2.328384e-03
311          	7.520681e-02	1.068539e-02	1.458090e-01	1.481113e-01	-2.302317e-03
312          	7.522369e-02	1.068302e-02	1.458564e-01	1.481519e-01	-2.295486e-03
313          	7.523712e-02	1.068086e-02	1.458997e-01	1.481870e-01	-2.287253e-03
314          	7.525373e-02	1.067735e-02	1.459587e-01	1.482331e-01	-2.274361e-03
315          	7.531897e-02	1.066066e-02	1.461826e-01	1.484103e-01	-2.227661e-03
316          	7.533694e-02	1.065626e-02	1.462455e-01	1.484597e-01	-2.214163e-03
317          	7.535554e-02	1.065187e-02	1.463082e-01	1.485096e-01	-2.201443e-03
318          	7.537943e-02	1.064653e-02	1.463865e-01	1.485727e-01	-2.186160e-03
319          	7.541130e-02	1.063989e-02	1.464893e-01	1.486559e-01	-2.166671e-03
320          	7.547738e-02	1.062707e-02	1.466933e-01	1.488240e-01	-2.130748e-03
321          	7.550851e-02	1.062215e-02	1.467878e-01	1.489024e-01	-2.114597e-03
322          	7.553605e-02	1.061836e-02	1.468697e-01	1.489709e-01	-2.101189e-03
323          	7.556536e-02	1.061436e-02	1.469558e-01	1.490433e-01	-2.087439e-03
324          	7.565554e-02	1.060022e-02	1.472080e-01	1.492595e-01	-2.051534e-03
325          	7.566844e-02	1.059819e-02	1.472483e-01	1.492926e-01	-2.044275e-03
326          	7.567760e-02	1.059635e-02	1.472811e-01	1.493182e-01	-2.037041e-03
327          	7.568847e-02	1.059351e-02	1.473255e-01	1.493512e-01	-2.025704e-03
328          	7.572943e-02	1.058124e-02	1.474910e-01	1.494749e-01	-1.983933e-03
329          	7.574923e-02	1.057657e-02	1.475701e-01	1.495343e-01	-1.964166e-03
330          	7.582580e-02	1.056212e-02	1.478288e-01	1.497402e-01	-1.911426e-03
331          	7.584077e-02	1.056055e-02	1.478753e-01	1.497784e-01	-1.903146e-03
332          	7.585644e-02	1.055953e-02	1.479183e-01	1.498156e-01	-1.897312e-03
333          	7.588113e-02	1.055789e-02	1.479824e-01	1.498723e-01	-1.889919e-03
334          	7.598892e-02	1.054842e-02	1.482525e-01	1.501152e-01	-1.862675e-03
335          	7.600729e-02	1.054672e-02	1.483064e-01	1.501605e-01	-1.854108e-03
336          	7.602651e-02	1.054410e-02	1.483709e-01	1.502120e-01	-1.841039e-03
337          	7.607535e-02	1.053495e-02	1.485454e-01	1.503480e-01	-1.802663e-03
338          	7.609674e-02	1.053111e-02	1.486269e-01	1.504102e-01	-1.783266e-03
339          	7.612114e-02	1.052676e-02	1.487186e-01	1.504804e-01	-1.761838e-03
340          	7.620412e-02	1.051261e-02	1.489931e-01	1.507007e-01	-1.707544e-03
341          	7.621709e-02	1.051113e-02	1.490359e-01	1.507350e-01	-1.699161e-03
342          	7.622955e-02	1.051002e-02	1.490739e-01	1.507665e-01	-1.692603e-03
343          	7.629220e-02	1.050296e-02	1.492417e-01	1.509130e-01	-1.671367e-03
344          	7.630583e-02	1.050189e-02	1.492824e-01	1.509470e-01	-1.664654e-03
345          	7.632578e-02	1.050004e-02	1.493435e-01	1.509975e-01	-1.654008e-03
346          	7.640588e-02	1.049109e-02	1.495828e-01	1.511973e-01	-1.614486e-03
347          	7.651283e-02	1.048030e-02	1.498930e-01	1.514593e-01	-1.566331e-03
348          	7.652286e-02	1.047941e-02	1.499255e-01	1.514856e-01	-1.560095e-03
349          	7.652913e-02	1.047884e-02	1.499484e-01	1.515033e-01	-1.554924e-03
350          	7.655169e-02	1.047462e-02	1.500314e-01	1.515674e-01	-1.535983e-03
351          	7.655929e-02	1.047372e-02	1.500644e-01	1.515915e-01	-1.527100e-03
352          	7.661055e-02	1.046535e-02	1.502508e-01	1.517360e-01	-1.485140e-03
353          	7.662838e-02	1.046320e-02	1.503133e-01	1.517850e-01	-1.471756e-03
354          	7.671848e-02	1.045292e-02	1.505855e-01	1.520112e-01	-1.425741e-03
355          	7.674236e-02	1.045091e-02	1.506554e-01	1.520701e-01	-1.414640e-03
356          	7.680934e-02	1.044490e-02	1.508322e-01	1.522255e-01	-1.393225e-03
357          	7.682775e-02	1.044384e-02	1.508833e-01	1.522694e-01	-1.386089e-03
358          	7.691048e-02	1.043829e-02	1.510998e-01	1.524604e-01	-1.360594e-03
359          	7.692118e-02	1.043793e-02	1.511358e-01	1.524891e-01	-1.353297e-03
360          	7.696629e-02	1.043334e-02	1.512853e-01	1.526089e-01	-1.323660e-03
361          	7.697967e-02	1.043187e-02	1.513357e-01	1.526475e-01	-1.311816e-03
362          	7.703857e-02	1.042399e-02	1.515410e-01	1.528091e-01	-1.268085e-03
363          	7.704990e-02	1.042272e-02	1.515828e-01	1.528413e-01	-1.258501e-03
364          	7.711321e-02	1.041562e-02	1.517787e-01	1.530026e-01	-1.223848e-03
365          	7.713014e-02	1.041428e-02	1.518319e-01	1.530461e-01	-1.214188e-03
366          	7.719343e-02	1.040850e-02	1.520115e-01	1.531992e-01	-1.187670e-03
367          	7.726996e-02	1.040198e-02	1.522183e-01	1.533791e-01	-1.160822e-03
368          	7.727940e-02	1.040154e-02	1.522477e-01	1.534032e-01	-1.155575e-03
369          	7.732021e-02	1.039748e-02	1.523676e-01	1.535040e-01	-1.136392e-03