# Force coefficients
# liftDir    : (0.000000e+00 1.000000e+00 0.000000e+00)
# dragDir    : (1.000000e+00 0.000000e+00 0.000000e+00)
# pitchAxis  : (0.000000e+00 0.000000e+00 1.000000e+00)
# magUInf    : 5.939300e+01
# lRef       : 1.000000e+00
# Aref       : 1.000000e+00
# CofR       : (0.000000e+00 0.000000e+00 0.000000e+00)
# Time       	Cm           	Cd           	Cl           	Cl(f)        	Cl(r)        
1            	1.400858e+00	2.663868e+00	1.499789e+00	2.150753e+00	-6.509640e-01
2            	1.195919e+00	2.144836e+00	1.350795e+00	1.871316e+00	-5.205215e-01
3            	-1.507209e-01	-2.367803e-01	-1.060719e-01	-2.037569e-01	9.768492e-02
4            	-9.159367e-01	-1.561426e+00	-1.000575e+00	-1.416224e+00	4.156492e-01
5            	-7.667504e-01	-1.179087e+00	-9.133605e-01	-1.223431e+00	3.100702e-01
6            	7.834545e-02	3.149613e-01	1.117892e-02	8.393491e-02	-7.275599e-02
7            	6.093425e-01	1.066122e+00	6.860115e-01	9.523483e-01	-2.663368e-01
8            	4.829618e-01	6.870344e-01	6.251346e-01	7.955291e-01	-1.703945e-01
9            	-3.840990e-02	-2.137289e-01	3.854863e-02	-1.913559e-02	5.768422e-02
10           	-3.800245e-01	-6.187144e-01	-4.250977e-01	-5.925733e-01	1.674757e-01
11           	-3.106844e-01	-3.551559e-01	-4.112669e-01	-5.163178e-01	1.050510e-01
12           	1.416740e-02	1.895589e-01	-3.729615e-02	-4.480670e-03	-3.281548e-02
13           	1.937408e-01	3.755789e-01	2.123492e-01	2.999155e-01	-8.756621e-02
14           	1.919494e-01	2.287608e-01	2.726235e-01	3.282611e-01	-5.563762e-02
15           	3.908836e-02	-6.068211e-02	1.135880e-01	9.588237e-02	1.770566e-02
16           	-8.530084e-02	-1.815295e-01	-6.761651e-02	-1.191091e-01	5.149259e-02
17           	-1.220039e-01	-1.107881e-01	-1.688861e-01	-2.064470e-01	3.756088e-02
18           	-5.151543e-02	4.817592e-02	-1.081765e-01	-1.056037e-01	-2.572839e-03
19           	2.696781e-02	1.155329e-01	9.496756e-03	3.171619e-02	-2.221943e-02
20           	7.381510e-02	8.388572e-02	1.131396e-01	1.303849e-01	-1.724532e-02
21           	5.227898e-02	6.300647e-03	1.095028e-01	1.070304e-01	2.472426e-03
22           	-8.366994e-03	-3.719899e-02	1.670792e-02	-1.303394e-05	1.672096e-02
23           	-3.932413e-02	-2.309168e-02	-4.896645e-02	-6.380736e-02	1.484090e-02
24           	-4.141381e-02	1.699775e-02	-7.593533e-02	-7.938148e-02	3.446149e-03
25           	-1.029559e-02	3.939804e-02	-3.046534e-02	-2.552826e-02	-4.937079e-03
26           	1.629761e-02	3.210491e-02	2.252190e-02	2.755856e-02	-5.036656e-03
27           	3.263554e-02	1.265657e-02	6.560610e-02	6.543859e-02	1.675130e-04
28           	1.954172e-02	1.631185e-03	4.848869e-02	4.378607e-02	4.702626e-03
29           	-5.470293e-03	5.075337e-03	8.223255e-04	-5.059130e-03	5.881456e-03
30           	-2.046531e-02	1.390931e-02	-3.285360e-02	-3.689211e-02	4.038510e-03
31           	-1.746357e-02	1.868942e-02	-3.253206e-02	-3.372960e-02	1.197540e-03
32           	-9.124431e-04	1.680592e-02	-3.180534e-03	-2.502710e-03	-6.778237e-04
33           	1.683032e-02	1.211955e-02	3.194389e-02	3.280226e-02	-8.583741e-04
34           	1.816721e-02	9.927600e-03	3.726714e-02	3.680078e-02	4.663581e-04
35           	8.684840e-03	1.110282e-02	2.119583e-02	1.928275e-02	1.913073e-03
36           	-6.248170e-03	1.345489e-02	-6.607934e-03	-9.552136e-03	2.944203e-03
37           	-1.224598e-02	1.445045e-02	-1.933078e-02	-2.191137e-02	2.580585e-03
38           	-6.802089e-03	1.349079e-02	-1.072727e-02	-1.216572e-02	1.438455e-03
39           	3.529120e-03	1.195111e-02	7.424149e-03	7.241195e-03	1.829546e-04
40           	1.307956e-02	1.112027e-02	2.529962e-02	2.572937e-02	-4.297501e-04
41           	1.246730e-02	1.154062e-02	2.506715e-02	2.500087e-02	6.627160e-05
42           	6.334339e-03	1.237770e-02	1.442192e-02	1.354530e-02	8.766198e-04
43           	-1.173816e-03	1.288240e-02	7.792712e-04	-7.841804e-04	1.563452e-03
44           	-5.037847e-03	1.270960e-02	-6.801797e-03	-8.438746e-03	1.636948e-03
45           	-2.258464e-03	1.213889e-02	-2.359067e-03	-3.437997e-03	1.078931e-03
46           	3.057493e-03	1.172213e-02	6.951877e-03	6.533431e-03	4.184456e-04
47           	7.509829e-03	1.161765e-02	1.512383e-02	1.507174e-02	5.208504e-05
48           	8.584157e-03	1.175267e-02	1.746552e-02	1.731692e-02	1.486032e-04
49           	6.199383e-03	1.191217e-02	1.339289e-02	1.289583e-02	4.970604e-04
50           	3.240369e-03	1.193517e-02	7.945406e-03	7.213072e-03	7.323339e-04
51           	1.348798e-03	1.185087e-02	4.253903e-03	3.475750e-03	7.781529e-04
52           	1.190990e-03	1.172778e-02	3.705513e-03	3.043746e-03	6.617668e-04
53           	2.315837e-03	1.165384e-02	5.612222e-03	5.121948e-03	4.902742e-04
54           	4.607452e-03	1.158210e-02	9.844073e-03	9.529489e-03	3.145841e-04
55           	6.115175e-03	1.152629e-02	1.272538e-02	1.247787e-02	2.475154e-04
56           	6.299767e-03	1.148147e-02	1.311640e-02	1.285797e-02	2.584320e-04
57           	5.443436e-03	1.146235e-02	1.162405e-02	1.125546e-02	3.685893e-04
58           	4.736996e-03	1.144444e-02	1.027698e-02	9.875488e-03	4.014963e-04
59           	4.376572e-03	1.142201e-02	9.568338e-03	9.160741e-03	4.075966e-04
60           	4.055517e-03	1.139773e-02	8.917137e-03	8.514085e-03	4.030519e-04
61           	4.037979e-03	1.135847e-02	8.854121e-03	8.465039e-03	3.890817e-04
62           	4.308844e-03	1.130684e-02	9.338622e-03	8.978155e-03	3.604670e-04
63           	4.823580e-03	1.125011e-02	1.029166e-02	9.969411e-03	3.222520e-04
64           	5.358244e-03	1.120485e-02	1.128703e-02	1.100176e-02	2.852691e-04
65           	5.711302e-03	1.117439e-02	1.195347e-02	1.168804e-02	2.654350e-04
66           	5.901331e-03	1.115551e-02	1.232275e-02	1.206271e-02	2.600459e-04
67           	5.907470e-03	1.113987e-02	1.236043e-02	1.208768e-02	2.727431e-04
68           	5.792226e-03	1.111855e-02	1.216269e-02	1.187357e-02	2.891187e-04
69           	5.677538e-03	1.108805e-02	1.195514e-02	1.165511e-02	3.000314e-04
70           	5.608327e-03	1.105351e-02	1.182081e-02	1.151873e-02	3.020801e-04
71           	5.571602e-03	1.101377e-02	1.174424e-02	1.144372e-02	3.005164e-04
72           	5.610127e-03	1.097113e-02	1.180264e-02	1.151145e-02	2.911943e-04
73           	5.749356e-03	1.093403e-02	1.205510e-02	1.177691e-02	2.781936e-04
74           	5.950504e-03	1.090949e-02	1.242789e-02	1.216445e-02	2.634435e-04
75           	6.141847e-03	1.089304e-02	1.279281e-02	1.253825e-02	2.545608e-04
76           	6.345135e-03	1.088251e-02	1.318816e-02	1.293922e-02	2.489473e-04
77           	6.529520e-03	1.087239e-02	1.356228e-02	1.331066e-02	2.516213e-04
78           	6.643823e-03	1.085640e-02	1.380382e-02	1.354573e-02	2.580884e-04
79           	6.670666e-03	1.083078e-02	1.387309e-02	1.360721e-02	2.658773e-04
80           	6.657396e-03	1.079996e-02	1.385303e-02	1.358391e-02	2.691215e-04
81           	6.656197e-03	1.077844e-02	1.384774e-02	1.358007e-02	2.676714e-04
82           	6.628921e-03	1.073453e-02	1.379896e-02	1.352840e-02	2.705572e-04
83           	6.627261e-03	1.069031e-02	1.380096e-02	1.352774e-02	2.732208e-04
84           	6.650209e-03	1.067041e-02	1.383843e-02	1.356943e-02	2.690074e-04
85           	6.770239e-03	1.064411e-02	1.407496e-02	1.380772e-02	2.672390e-04
86           	6.818796e-03	1.062906e-02	1.416351e-02	1.390055e-02	2.629586e-04
87           	7.032653e-03	1.061883e-02	1.459249e-02	1.432890e-02	2.635945e-04
88           	7.091878e-03	1.060664e-02	1.470502e-02	1.444439e-02	2.606297e-04
89           	7.290631e-03	1.059823e-02	1.511716e-02	1.484921e-02	2.679485e-04
90           	7.335134e-03	1.058529e-02	1.520392e-02	1.493710e-02	2.668276e-04
91           	7.439908e-03	1.056575e-02	1.543662e-02	1.515822e-02	2.784032e-04
92           	7.462799e-03	1.055022e-02	1.548234e-02	1.520397e-02	2.783729e-04
93           	7.486896e-03	1.051779e-02	1.555766e-02	1.526573e-02	2.919330e-04
94           	7.496282e-03	1.050031e-02	1.557635e-02	1.528446e-02	2.918924e-04
95           	7.486649e-03	1.046182e-02	1.558403e-02	1.527866e-02	3.053674e-04
96           	7.495977e-03	1.044540e-02	1.560201e-02	1.529698e-02	3.050282e-04
97           	7.509132e-03	1.042909e-02	1.563114e-02	1.532470e-02	3.064360e-04
98           	7.560213e-03	1.040001e-02	1.577283e-02	1.544663e-02	3.262018e-04
99           	7.586076e-03	1.038624e-02	1.582992e-02	1.550104e-02	3.288828e-04
100          	7.619914e-03	1.037437e-02	1.590511e-02	1.557247e-02	3.326439e-04
101          	7.742912e-03	1.036047e-02	1.621141e-02	1.584862e-02	3.627933e-04
102          	7.777258e-03	1.035030e-02	1.628758e-02	1.592105e-02	3.665319e-04
103          	7.808653e-03	1.034025e-02	1.636073e-02	1.598902e-02	3.717142e-04
104          	7.908459e-03	1.032481e-02	1.661713e-02	1.621702e-02	4.001046e-04
105          	7.931507e-03	1.031336e-02	1.667450e-02	1.626876e-02	4.057408e-04
106          	7.951501e-03	1.030078e-02	1.672743e-02	1.631522e-02	4.122153e-04
107          	7.983310e-03	1.026906e-02	1.686429e-02	1.641545e-02	4.488327e-04
108          	7.993872e-03	1.025522e-02	1.689673e-02	1.644224e-02	4.544931e-04
109          	7.999680e-03	1.024115e-02	1.692198e-02	1.646067e-02	4.613075e-04
110          	7.994674e-03	1.020925e-02	1.697814e-02	1.648375e-02	4.943980e-04
111          	8.000448e-03	1.019730e-02	1.700195e-02	1.650142e-02	5.005248e-04
112          	8.009971e-03	1.018678e-02	1.703398e-02	1.652696e-02	5.070203e-04
113          	8.024142e-03	1.017602e-02	1.708313e-02	1.656570e-02	5.174208e-04
114          	8.071043e-03	1.015759e-02	1.727306e-02	1.670757e-02	5.654867e-04
115          	8.090512e-03	1.014851e-02	1.733024e-02	1.675563e-02	5.746071e-04
116          	8.111457e-03	1.014043e-02	1.738802e-02	1.680547e-02	5.825555e-04
117          	8.134763e-03	1.013142e-02	1.745591e-02	1.686272e-02	5.931924e-04
118          	8.165293e-03	1.012112e-02	1.754618e-02	1.693838e-02	6.077953e-04
119          	8.243681e-03	1.009692e-02	1.782230e-02	1.715483e-02	6.674668e-04
120          	8.265132e-03	1.008750e-02	1.788355e-02	1.720691e-02	6.766422e-04
121          	8.279164e-03	1.007865e-02	1.792616e-02	1.724224e-02	6.839159e-04
122          	8.292123e-03	1.006916e-02	1.796711e-02	1.727568e-02	6.914348e-04
123          	8.304032e-03	1.005784e-02	1.801333e-02	1.731070e-02	7.026332e-04
124          	8.314041e-03	1.002917e-02	1.812314e-02	1.737561e-02	7.475282e-04
125          	8.322689e-03	1.001974e-02	1.815808e-02	1.740173e-02	7.563532e-04
126          	8.331726e-03	1.001201e-02	1.819092e-02	1.742718e-02	7.637324e-04
127          	8.342654e-03	1.000406e-02	1.823318e-02	1.745925e-02	7.739364e-04
128          	8.360758e-03	9.995646e-03	1.829896e-02	1.751024e-02	7.887239e-04
129          	8.396555e-03	9.977092e-03	1.848594e-02	1.763952e-02	8.464129e-04
130          	8.414125e-03	9.970665e-03	1.854021e-02	1.768423e-02	8.559796e-04
131          	8.428816e-03	9.964963e-03	1.858529e-02	1.772146e-02	8.638271e-04
132          	8.446444e-03	9.958953e-03	1.863759e-02	1.776524e-02	8.723497e-04
133          	8.467740e-03	9.951510e-03	1.870562e-02	1.782055e-02	8.850706e-04
134          	8.496129e-03	9.942343e-03	1.879899e-02	1.789563e-02	9.033685e-04
135          	8.550042e-03	9.916639e-03	1.903347e-02	1.806678e-02	9.666922e-04
136          	8.566432e-03	9.908963e-03	1.908717e-02	1.811002e-02	9.771524e-04
137          	8.575420e-03	9.902384e-03	1.911932e-02	1.813508e-02	9.842423e-04
138          	8.583730e-03	9.895794e-03	1.914942e-02	1.815844e-02	9.909786e-04
139          	8.591934e-03	9.888077e-03	1.918628e-02	1.818507e-02	1.001205e-03
140          	8.606680e-03	9.870237e-03	1.927118e-02	1.824227e-02	1.028908e-03
141          	8.619120e-03	9.862480e-03	1.931922e-02	1.827873e-02	1.040489e-03
142          	8.634404e-03	9.855091e-03	1.937582e-02	1.832232e-02	1.053508e-03
143          	8.652494e-03	9.846513e-03	1.944984e-02	1.837741e-02	1.072427e-03
144          	8.675082e-03	9.836883e-03	1.954503e-02	1.844760e-02	1.097433e-03
145          	8.707485e-03	9.812678e-03	1.974607e-02	1.858052e-02	1.165548e-03
146          	8.716746e-03	9.807714e-03	1.978337e-02	1.860843e-02	1.174941e-03
147          	8.721855e-03	9.803965e-03	1.980513e-02	1.862442e-02	1.180711e-03
148          	8.727510e-03	9.800591e-03	1.982693e-02	1.864097e-02	1.185955e-03
149          	8.733049e-03	9.796725e-03	1.985400e-02	1.866005e-02	1.193952e-03
150          	8.740986e-03	9.792061e-03	1.989509e-02	1.868853e-02	1.206560e-03
151          	8.739050e-03	9.777080e-03	1.998615e-02	1.873212e-02	1.254023e-03
152          	8.748109e-03	9.771005e-03	2.002969e-02	1.876295e-02	1.266736e-03
153          	8.758190e-03	9.764019e-03	2.007621e-02	1.879630e-02	1.279917e-03
154          	8.774930e-03	9.755106e-03	2.014166e-02	1.884576e-02	1.295899e-03
155          	8.818076e-03	9.725737e-03	2.032118e-02	1.897867e-02	1.342513e-03
156          	8.830777e-03	9.720012e-03	2.036294e-02	1.901225e-02	1.350693e-03
157          	8.840373e-03	9.715332e-03	2.039695e-02	1.903885e-02	1.358101e-03
158          	8.851219e-03	9.710693e-03	2.043694e-02	1.906969e-02	1.367254e-03
159          	8.869529e-03	9.697917e-03	2.053061e-02	1.913483e-02	1.395775e-03
160          	8.879063e-03	9.692722e-03	2.057328e-02	1.916570e-02	1.407575e-03
161          	8.885785e-03	9.687067e-03	2.061751e-02	1.919454e-02	1.422972e-03
162          	8.892167e-03	9.680495e-03	2.067135e-02	1.922784e-02	1.443507e-03
163          	8.886743e-03	9.660226e-03	2.077442e-02	1.927395e-02	1.500466e-03
164          	8.890364e-03	9.655786e-03	2.080284e-02	1.929179e-02	1.511056e-03
165          	8.892839e-03	9.652018e-03	2.082377e-02	1.930473e-02	1.519046e-03
166          	8.897010e-03	9.648131e-03	2.084860e-02	1.932131e-02	1.527290e-03
167          	8.901758e-03	9.643110e-03	2.088090e-02	1.934221e-02	1.538691e-03
168          	8.909064e-03	9.636595e-03	2.092682e-02	1.937247e-02	1.554345e-03
169          	8.916504e-03	9.627533e-03	2.098681e-02	1.940991e-02	1.576901e-03
170          	8.924374e-03	9.616230e-03	2.105815e-02	1.945345e-02	1.604698e-03
171          	8.914311e-03	9.585731e-03	2.116400e-02	1.949631e-02	1.667690e-03
172          	8.916341e-03	9.581042e-03	2.118420e-02	1.950844e-02	1.675762e-03
173          	8.917186e-03	9.578210e-03	2.119393e-02	1.951415e-02	1.679779e-03
174          	8.919641e-03	9.576290e-03	2.120463e-02	1.952196e-02	1.682676e-03
175          	8.922578e-03	9.574372e-03	2.121936e-02	1.953226e-02	1.687100e-03
176          	8.927863e-03	9.572123e-03	2.124403e-02	1.954988e-02	1.694151e-03
177          	8.933782e-03	9.568209e-03	2.128227e-02	1.957492e-02	1.707354e-03
178          	8.941606e-03	9.561616e-03	2.134080e-02	1.961200e-02	1.728793e-03
179          	8.947565e-03	9.540909e-03	2.145206e-02	1.967359e-02	1.778464e-03
180          	8.952967e-03	9.532646e-03	2.149837e-02	1.970215e-02	1.796216e-03
181          	8.955689e-03	9.525384e-03	2.153132e-02	1.972135e-02	1.809968e-03
182          	8.959009e-03	9.518524e-03	2.156297e-02	1.974049e-02	1.822476e-03
183          	8.960713e-03	9.511324e-03	2.159458e-02	1.975801e-02	1.836579e-03
184          	8.961156e-03	9.504552e-03	2.162515e-02	1.977373e-02	1.851419e-03
185          	8.956665e-03	9.497927e-03	2.165016e-02	1.978174e-02	1.868414e-03
186          	8.947391e-03	9.491564e-03	2.166954e-02	1.978216e-02	1.887378e-03
187          	8.930597e-03	9.485267e-03	2.167854e-02	1.976987e-02	1.908673e-03
188          	8.910740e-03	9.479695e-03	2.167922e-02	1.975035e-02	1.928868e-03
189          	8.890035e-03	9.474544e-03	2.167395e-02	1.972701e-02	1.946942e-03
190          	8.874918e-03	9.470007e-03	2.167159e-02	1.971071e-02	1.960878e-03
191          	8.864372e-03	9.465184e-03	2.167462e-02	1.970168e-02	1.972938e-03
192          	8.860092e-03	9.459908e-03	2.168763e-02	1.970391e-02	1.983725e-03
193          	8.859480e-03	9.453230e-03	2.171077e-02	1.971487e-02	1.995906e-03
194          	8.863692e-03	9.445135e-03	2.174706e-02	1.973722e-02	2.009838e-03
195          	8.869444e-03	9.435490e-03	2.179274e-02	1.976581e-02	2.026927e-03
196          	8.876466e-03	9.425578e-03	2.184352e-02	1.979822e-02	2.045292e-03
197          	8.880429e-03	9.416221e-03	2.188954e-02	1.982520e-02	2.064339e-03
198          	8.881777e-03	9.408714e-03	2.192618e-02	1.984487e-02	2.081312e-03
199          	8.877920e-03	9.402739e-03	2.194967e-02	1.985276e-02	2.096917e-03
200          	8.870748e-03	9.398369e-03	2.196202e-02	1.985176e-02	2.110261e-03
201          	8.858183e-03	9.394697e-03	2.196249e-02	1.983943e-02	2.123064e-03
202          	8.842682e-03	9.391586e-03	2.195486e-02	1.982011e-02	2.134750e-03
203          	8.823300e-03	9.388241e-03	2.194002e-02	1.979331e-02	2.146711e-03
204          	8.804125e-03	9.384690e-03	2.192439e-02	1.976632e-02	2.158069e-03
205          	8.785138e-03	9.380378e-03	2.191031e-02	1.974029e-02	2.170014e-03
206          	8.770190e-03	9.375580e-03	2.190359e-02	1.972198e-02	2.181604e-03
207          	8.758066e-03	9.369851e-03	2.190431e-02	1.971022e-02	2.194088e-03
208          	8.751189e-03	9.363603e-03	2.191521e-02	1.970880e-02	2.206419e-03
209          	8.747166e-03	9.356586e-03	2.193345e-02	1.971389e-02	2.219559e-03
210          	8.746992e-03	9.349566e-03	2.195803e-02	1.972601e-02	2.232022e-03
211          	8.747076e-03	9.342578e-03	2.198323e-02	1.973869e-02	2.244540e-03
212          	8.747749e-03	9.336402e-03	2.200704e-02	1.975127e-02	2.255769e-03
213          	8.745820e-03	9.330780e-03	2.202533e-02	1.975848e-02	2.266845e-03
214          	8.742497e-03	9.326064e-03	2.203875e-02	1.976187e-02	2.276876e-03
215          	8.735428e-03	9.321720e-03	2.204510e-02	1.975798e-02	2.287120e-03
216          	8.726613e-03	9.317966e-03	2.204636e-02	1.974979e-02	2.296569e-03
217          	8.721523e-03	9.314754e-03	2.205010e-02	1.974657e-02	2.303529e-03
218          	8.709547e-03	9.310598e-03	2.204404e-02	1.973157e-02	2.312475e-03
219          	8.696406e-03	9.306331e-03	2.203545e-02	1.971413e-02	2.321321e-03
220          	8.685657e-03	9.302521e-03	2.202889e-02	1.970010e-02	2.328787e-03
221          	8.675898e-03	9.298917e-03	2.202402e-02	1.968791e-02	2.336111e-03
222          	8.669339e-03	9.295876e-03	2.202375e-02	1.968121e-02	2.342534e-03
223          	8.663516e-03	9.292870e-03	2.202599e-02	1.967651e-02	2.349478e-03
224          	8.659824e-03	9.290011e-03	2.203223e-02	1.967594e-02	2.356291e-03
225          	8.655939e-03	9.286716e-03	2.204010e-02	1.967599e-02	2.364109e-03
226          	8.653730e-03	9.283227e-03	2.205075e-02	1.967910e-02	2.371644e-03
227          	8.651230e-03	9.279266e-03	2.206106e-02	1.968176e-02	2.379302e-03
228          	8.650583e-03	9.275443e-03	2.207169e-02	1.968643e-02	2.385262e-03
229          	8.649676e-03	9.271733e-03	2.207978e-02	1.968957e-02	2.390214e-03
230          	8.650363e-03	9.268720e-03	2.208726e-02	1.969399e-02	2.393265e-03
231          	8.650389e-03	9.266107e-03	2.209271e-02	1.969674e-02	2.395965e-03
232          	8.651468e-03	9.264115e-03	2.209874e-02	1.970084e-02	2.397903e-03
233          	8.654642e-03	9.262325e-03	2.210849e-02	1.970889e-02	2.399603e-03
234          	8.657211e-03	9.260222e-03	2.211773e-02	1.971607e-02	2.401652e-03
235          	8.658495e-03	9.258037e-03	2.212605e-02	1.972152e-02	2.404530e-03
236          	8.659912e-03	9.256236e-03	2.213403e-02	1.972693e-02	2.407103e-03
237          	8.659033e-03	9.254626e-03	2.213854e-02	1.972830e-02	2.410236e-03
238          	8.658163e-03	9.253550e-03	2.214169e-02	1.972901e-02	2.412682e-03
239          	8.655903e-03	9.252590e-03	2.214254e-02	1.972717e-02	2.415368e-03
240          	8.654929e-03	9.251917e-03	2.214440e-02	1.972713e-02	2.417272e-03
241          	8.653914e-03	9.251078e-03	2.214649e-02	1.972716e-02	2.419332e-03
242          	8.655417e-03	9.250276e-03	2.215174e-02	1.973129e-02	2.420451e-03
243          	8.657949e-03	9.249154e-03	2.215876e-02	1.973733e-02	2.421433e-03
244          	8.663694e-03	9.248033e-03	2.216959e-02	1.974849e-02	2.421103e-03
245          	8.670020e-03	9.246703e-03	2.218116e-02	1.976060e-02	2.420562e-03
246          	8.678035e-03	9.245568e-03	2.219413e-02	1.977510e-02	2.419032e-03
247          	8.686093e-03	9.244392e-03	2.220766e-02	1.978992e-02	2.417736e-03
248          	8.695846e-03	9.242951e-03	2.222246e-02	1.980708e-02	2.415385e-03
249          	8.703311e-03	9.241584e-03	2.223439e-02	1.982050e-02	2.413883e-03
250          	8.709956e-03	9.240693e-03	2.224472e-02	1.983232e-02	2.412406e-03
251          	8.713445e-03	9.240052e-03	2.225094e-02	1.983892e-02	2.412027e-03
252          	8.715978e-03	9.239982e-03	2.225517e-02	1.984356e-02	2.411606e-03
253          	8.716043e-03	9.240134e-03	2.225593e-02	1.984401e-02	2.411921e-03
254          	8.716501e-03	9.240691e-03	2.225626e-02	1.984463e-02	2.411631e-03
255          	8.716217e-03	9.241168e-03	2.225538e-02	1.984391e-02	2.411474e-03
256          	8.718082e-03	9.241663e-03	2.225652e-02	1.984634e-02	2.410180e-03
257          	8.720563e-03	9.241689e-03	2.225856e-02	1.984984e-02	2.408719e-03
258          	8.725998e-03	9.241421e-03	2.226409e-02	1.985804e-02	2.406046e-03
259          	8.732061e-03	9.240561e-03	2.227094e-02	1.986753e-02	2.403408e-03
260          	8.740497e-03	9.239468e-03	2.228085e-02	1.988092e-02	2.399928e-03
261          	8.748461e-03	9.238035e-03	2.229083e-02	1.989387e-02	2.396953e-03
262          	8.758296e-03	9.236797e-03	2.230394e-02	1.991027e-02	2.393674e-03
263          	8.768822e-03	9.234854e-03	2.231786e-02	1.992775e-02	2.390109e-03
264          	8.779344e-03	9.233361e-03	2.233164e-02	1.994516e-02	2.386474e-03
265          	8.786300e-03	9.232260e-03	2.234117e-02	1.995689e-02	2.384285e-03
266          	8.791509e-03	9.231860e-03	2.234797e-02	1.996549e-02	2.382475e-03
267          	8.793177e-03	9.231769e-03	2.235007e-02	1.996821e-02	2.381858e-03
268          	8.794234e-03	9.232088e-03	2.235042e-02	1.996945e-02	2.380977e-03
269          	8.793610e-03	9.232305e-03	2.234804e-02	1.996763e-02	2.380411e-03
270          	8.794337e-03	9.232503e-03	2.234608e-02	1.996738e-02	2.378702e-03
271          	8.795266e-03	9.232175e-03	2.234381e-02	1.996717e-02	2.376639e-03
272          	8.799235e-03	9.231458e-03	2.234460e-02	1.997153e-02	2.373063e-03
273          	8.804245e-03	9.230050e-03	2.234722e-02	1.997785e-02	2.369364e-03
274          	8.812369e-03	9.228293e-03	2.235424e-02	1.998949e-02	2.364750e-03
275          	8.820827e-03	9.226100e-03	2.236317e-02	2.000241e-02	2.360759e-03
276          	8.831464e-03	9.223879e-03	2.237586e-02	2.001939e-02	2.356465e-03
277          	8.841523e-03	9.221530e-03	2.238926e-02	2.003615e-02	2.353105e-03
278          	8.852908e-03	9.219429e-03	2.240497e-02	2.005539e-02	2.349578e-03
279          	8.862863e-03	9.217416e-03	2.241963e-02	2.007268e-02	2.346954e-03
280          	8.873315e-03	9.215803e-03	2.243467e-02	2.009065e-02	2.344022e-03
281          	8.882096e-03	9.214243e-03	2.244722e-02	2.010570e-02	2.341511e-03
282          	8.893631e-03	9.212495e-03	2.246264e-02	2.012495e-02	2.337688e-03
283          	8.903132e-03	9.210679e-03	2.247488e-02	2.014057e-02	2.334309e-03
284          	8.912680e-03	9.209049e-03	2.248614e-02	2.015575e-02	2.330391e-03
285          	8.920064e-03	9.207310e-03	2.249437e-02	2.016725e-02	2.327121e-03
286          	8.928025e-03	9.205679e-03	2.250263e-02	2.017934e-02	2.323292e-03
287          	8.935089e-03	9.203780e-03	2.250980e-02	2.018999e-02	2.319809e-03
288          	8.944181e-03	9.201798e-03	2.251923e-02	2.020380e-02	2.315433e-03
289          	8.953605e-03	9.199416e-03	2.252973e-02	2.021847e-02	2.311258e-03
290          	8.965851e-03	9.196943e-03	2.254433e-02	2.023801e-02	2.306312e-03
291          	8.978440e-03	9.194194e-03	2.256082e-02	2.025885e-02	2.301972e-03
292          	8.993355e-03	9.191539e-03	2.258129e-02	2.028400e-02	2.297288e-03
293          	9.007784e-03	9.188791e-03	2.260250e-02	2.030904e-02	2.293469e-03
294          	9.023679e-03	9.186264e-03	2.262606e-02	2.033671e-02	2.289353e-03
295          	9.038263e-03	9.183644e-03	2.264782e-02	2.036217e-02	2.285645e-03
296          	9.057435e-03	9.180690e-03	2.267643e-02	2.039565e-02	2.280780e-03
297          	9.074842e-03	9.177728e-03	2.270275e-02	2.042622e-02	2.276535e-03
298          	9.091743e-03	9.175152e-03	2.272762e-02	2.045555e-02	2.272067e-03
299          	9.105347e-03	9.172723e-03	2.274786e-02	2.047928e-02	2.268583e-03
300          	9.117917e-03	9.170689e-03	2.276581e-02	2.050082e-02	2.264987e-03
301          	9.127819e-03	9.168667e-03	2.278002e-02	2.051783e-02	2.262190e-03
302          	9.137946e-03	9.166834e-03	2.279387e-02	2.053488e-02	2.258986e-03
303          	9.146914e-03	9.164807e-03	2.280640e-02	2.055011e-02	2.256285e-03
304          	9.157548e-03	9.162810e-03	2.282102e-02	2.056806e-02	2.252961e-03
305          	9.168199e-03	9.160515e-03	2.283647e-02	2.058644e-02	2.250038e-03
306          	9.181301e-03	9.158191e-03	2.285557e-02	2.060909e-02	2.246484e-03
307          	9.194653e-03	9.155572e-03	2.287611e-02	2.063271e-02	2.243404e-03
308          	9.209817e-03	9.152971e-03	2.289863e-02	2.065913e-02	2.239497e-03
309          	9.228221e-03	9.149571e-03	2.292798e-02	2.069221e-02	2.235768e-03
310          	9.247466e-03	9.146447e-03	2.295874e-02	2.072683e-02	2.231903e-03
311          	9.263953e-03	9.143544e-03	2.298640e-02	2.075715e-02	2.229248e-03
312          	9.278995e-03	9.141268e-03	2.301176e-02	2.078487e-02	2.226884e-03
313          	9.290470e-03	9.139309e-03	2.303232e-02	2.080663e-02	2.225691e-03
314          	9.300901e-03	9.137848e-03	2.305083e-02	2.082632e-02	2.224516e-03
315          	9.308949e-03	9.136446e-03	2.306613e-02	2.084201e-02	2.224114e-03
316          	9.317284e-03	9.135264e-03	2.308122e-02	2.085790e-02	2.223328e-03
317          	9.324526e-03	9.133873e-03	2.309494e-02	2.087200e-02	2.222943e-03
318          	9.333329e-03	9.132458e-03	2.311029e-02	2.088847e-02	2.221816e-03
319          	9.342060e-03	9.130663e-03	2.312584e-02	2.090498e-02	2.220857e-03
320          	9.352999e-03	9.128770e-03	2.314416e-02	2.092508e-02	2.219082e-03
321          	9.363434e-03	9.126617e-03	2.316108e-02	2.094397e-02	2.217104e-03
322          	9.379626e-03	9.123793e-03	2.318796e-02	2.097361e-02	2.214355e-03
323          	9.395459e-03	9.120824e-03	2.321542e-02	2.100317e-02	2.212251e-03
324          	9.411772e-03	9.118245e-03	2.324390e-02	2.103372e-02	2.210176e-03
325          	9.425523e-03	9.115941e-03	2.326971e-02	2.106038e-02	2.209330e-03
326          	9.438220e-03	9.114266e-03	2.329405e-02	2.108524e-02	2.208804e-03
327          	9.447949e-03	9.112874e-03	2.331481e-02	2.110535e-02	2.209454e-03
328          	9.457046e-03	9.111965e-03	2.333450e-02	2.112430e-02	2.210204e-03
329          	9.464103e-03	9.111102e-03	2.335176e-02	2.113999e-02	2.211780e-03
330          	9.471734e-03	9.110440e-03	2.336944e-02	2.115645e-02	2.212984e-03
331          	9.478633e-03	9.109517e-03	2.338621e-02	2.117174e-02	2.214470e-03
332          	9.487426e-03	9.108504e-03	2.340492e-02	2.118989e-02	2.215036e-03
333          	9.496437e-03	9.107041e-03	2.342390e-02	2.120839e-02	2.215512e-03
334          	9.507784e-03	9.105434e-03	2.344549e-02	2.123053e-02	2.214962e-03
335          	9.517057e-03	9.103752e-03	2.346202e-02	2.124807e-02	2.213955e-03
336          	9.534043e-03	9.101154e-03	2.349284e-02	2.128046e-02	2.212378e-03
337          	9.550378e-03	9.098465e-03	2.352385e-02	2.131230e-02	2.211546e-03
338          	9.566602e-03	9.096281e-03	2.355501e-02	2.134411e-02	2.210906e-03
339          	9.579551e-03	9.094496e-03	2.358242e-02	2.137076e-02	2.211658e-03
340          	9.590898e-03	9.093434e-03	2.360747e-02	2.139463e-02	2.212838e-03
341          	9.599043e-03	9.092692e-03	2.362856e-02	2.141332e-02	2.215236e-03
342          	9.606648e-03	9.092420e-03	2.364876e-02	2.143103e-02	2.217730e-03
343          	9.612634e-03	9.092125e-03	2.366723e-02	2.144625e-02	2.220981e-03
344          	9.619860e-03	9.091912e-03	2.368716e-02	2.146344e-02	2.223719e-03
345          	9.627141e-03	9.091283e-03	2.370734e-02	2.148081e-02	2.226529e-03
346          	9.637076e-03	9.090410e-03	2.373054e-02	2.150235e-02	2.228196e-03
347          	9.647658e-03	9.088981e-03	2.375455e-02	2.152493e-02	2.229615e-03
348          	9.657071e-03	9.087789e-03	2.377244e-02	2.154329e-02	2.229149e-03
349          	9.685693e-03	9.083194e-03	2.382851e-02	2.159995e-02	2.228561e-03
350          	9.697858e-03	9.081653e-03	2.385231e-02	2.162402e-02	2.228300e-03
351          	9.706831e-03	9.080443e-03	2.387172e-02	2.164269e-02	2.229028e-03
352          	9.716948e-03	9.079610e-03	2.389452e-02	2.166421e-02	2.230311e-03
353          	9.727227e-03	9.078826e-03	2.392151e-02	2.168798e-02	2.233527e-03
354          	9.760478e-03	9.077200e-03	2.400573e-02	2.176334e-02	2.242388e-03
355          	9.762091e-03	9.077304e-03	2.401330e-02	2.176874e-02	2.244558e-03
356          	9.762666e-03	9.077689e-03	2.401726e-02	2.177130e-02	2.245964e-03
357          	9.761877e-03	9.077995e-03	2.401990e-02	2.177183e-02	2.248072e-03
358          	9.762426e-03	9.078427e-03	2.402609e-02	2.177547e-02	2.250618e-03
359          	9.769261e-03	9.077871e-03	2.405714e-02	2.179783e-02	2.259311e-03
360          	9.774656e-03	9.077434e-03	2.407081e-02	2.181006e-02	2.260751e-03
361          	9.783619e-03	9.076136e-03	2.409144e-02	2.182934e-02	2.262100e-03
362          	9.830916e-03	9.070424e-03	2.418744e-02	2.192464e-02	2.262804e-03
363          	9.837320e-03	9.069571e-03	2.420235e-02	2.193850e-02	2.263857e-03
364          	9.843181e-03	9.069198e-03	2.421602e-02	2.195119e-02	2.264827e-03
365          	9.849181e-03	9.068798e-03	2.423277e-02	2.196557e-02	2.267204e-03
366          	9.858684e-03	9.068671e-03	2.425918e-02	2.198827e-02	2.270907e-03
367          	9.877860e-03	9.067904e-03	2.431484e-02	2.203528e-02	2.279558e-03
368          	9.909720e-03	9.066827e-03	2.439757e-02	2.210851e-02	2.289066e-03
369          	9.911328e-03	9.066744e-03	2.440372e-02	2.211319e-02	2.290531e-03
370          	9.912571e-03	9.066811e-03	2.440750e-02	2.211632e-02	2.291179e-03
371          	9.913091e-03	9.066597e-03	2.441121e-02	2.211869e-02	2.292513e-03
372          	9.915934e-03	9.066187e-03	2.442051e-02	2.212619e-02	2.294319e-03
373          	9.933534e-03	9.062352e-03	2.446920e-02	2.216814e-02	2.301067e-03