# Force coefficients
# liftDir    : (0.000000e+00 1.000000e+00 0.000000e+00)
# dragDir    : (1.000000e+00 0.000000e+00 0.000000e+00)
# pitchAxis  : (0.000000e+00 0.000000e+00 1.000000e+00)
# magUInf    : 5.939300e+01
# lRef       : 1.000000e+00
# Aref       : 1.000000e+00
# CofR       : (0.000000e+00 0.000000e+00 0.000000e+00)
# Time       	Cm           	Cd           	Cl           	Cl(f)        	Cl(r)        
1            	5.029939e+00	3.553149e+00	2.702601e+00	6.381239e+00	-3.678639e+00
2            	4.195545e+00	2.818126e+00	2.463461e+00	5.427276e+00	-2.963815e+00
3            	-4.218703e-01	-4.367624e-01	5.991823e-03	-4.188744e-01	4.248662e-01
4            	-2.853959e+00	-2.087243e+00	-1.362485e+00	-3.535201e+00	2.172716e+00
5            	-2.297924e+00	-1.571648e+00	-1.257171e+00	-2.926510e+00	1.669339e+00
6            	1.217961e-01	2.522103e-01	-2.054823e-01	1.905495e-02	-2.245373e-01
7            	1.906218e+00	1.403350e+00	9.017385e-01	2.357088e+00	-1.455349e+00
8            	1.592446e+00	1.076431e+00	8.981741e-01	2.041533e+00	-1.143359e+00
9            	7.200557e-02	-1.290636e-01	3.661544e-01	2.550828e-01	1.110716e-01
10           	-1.069750e+00	-9.033321e-01	-2.568953e-01	-1.198198e+00	9.413023e-01
11           	-8.514511e-01	-6.424136e-01	-3.233337e-01	-1.013118e+00	6.897842e-01
12           	5.178147e-02	1.135486e-01	-1.072850e-01	-1.861049e-03	-1.054240e-01
13           	7.017697e-01	5.746984e-01	1.867902e-01	7.951648e-01	-6.083746e-01
14           	5.735220e-01	4.101514e-01	2.475589e-01	6.973015e-01	-4.497426e-01
15           	6.576587e-02	-4.752819e-02	2.059776e-01	1.687547e-01	3.722295e-02
16           	-2.421044e-01	-2.875290e-01	1.222686e-01	-1.809701e-01	3.032387e-01
17           	-2.107163e-01	-2.171778e-01	5.663569e-02	-1.823984e-01	2.390341e-01
18           	3.386798e-02	2.590636e-02	2.006916e-02	4.390256e-02	-2.383341e-02
19           	2.052589e-01	1.684143e-01	3.857882e-02	2.245483e-01	-1.859695e-01
20           	2.053202e-01	1.467698e-01	6.839965e-02	2.395200e-01	-1.711204e-01
21           	1.027328e-01	2.311089e-02	1.340828e-01	1.697742e-01	-3.569142e-02
22           	1.639333e-02	-5.646902e-02	1.460856e-01	8.943611e-02	5.664944e-02
23           	5.889303e-03	-5.257239e-02	1.281598e-01	6.996919e-02	5.819058e-02
24           	4.444638e-02	3.701681e-03	8.030230e-02	8.459752e-02	-4.295228e-03
25           	9.003797e-02	4.813781e-02	6.409965e-02	1.220878e-01	-5.798815e-02
26           	1.004816e-01	4.818030e-02	7.645694e-02	1.387101e-01	-6.225316e-02
27           	8.920231e-02	2.420615e-02	1.061349e-01	1.422698e-01	-3.613484e-02
28           	7.003406e-02	2.193665e-03	1.231979e-01	1.316330e-01	-8.435124e-03
29           	6.273840e-02	7.358097e-04	1.175386e-01	1.215077e-01	-3.969111e-03
30           	6.420957e-02	9.899687e-03	1.009582e-01	1.146887e-01	-1.373048e-02
31           	7.232839e-02	1.923981e-02	9.225271e-02	1.184547e-01	-2.620204e-02
32           	7.960176e-02	2.164274e-02	9.636238e-02	1.277830e-01	-3.142057e-02
33           	8.416209e-02	1.962501e-02	1.075311e-01	1.379276e-01	-3.039655e-02
34           	8.187858e-02	1.548417e-02	1.149570e-01	1.393571e-01	-2.440009e-02
35           	7.667844e-02	1.335225e-02	1.130175e-01	1.331872e-01	-2.016966e-02
36           	7.396880e-02	1.380237e-02	1.083481e-01	1.281428e-01	-1.979475e-02
37           	7.493075e-02	1.523388e-02	1.054668e-01	1.276641e-01	-2.219737e-02
38           	7.882981e-02	1.637082e-02	1.081619e-01	1.329107e-01	-2.474887e-02
39           	8.251283e-02	1.667904e-02	1.133863e-01	1.392060e-01	-2.581970e-02
40           	8.324651e-02	1.628618e-02	1.162397e-01	1.413663e-01	-2.512669e-02
41           	8.170666e-02	1.568814e-02	1.162914e-01	1.398524e-01	-2.356094e-02
42           	8.015260e-02	1.555270e-02	1.144784e-01	1.373918e-01	-2.291342e-02
43           	7.974147e-02	1.546207e-02	1.139107e-01	1.366968e-01	-2.278610e-02
44           	8.102329e-02	1.558967e-02	1.153985e-01	1.387225e-01	-2.332405e-02
45           	8.328535e-02	1.580376e-02	1.186353e-01	1.426030e-01	-2.396771e-02
46           	8.500419e-02	1.599610e-02	1.214142e-01	1.457113e-01	-2.429708e-02
47           	8.550655e-02	1.612662e-02	1.225038e-01	1.467584e-01	-2.425465e-02
48           	8.484074e-02	1.601017e-02	1.222272e-01	1.459543e-01	-2.372713e-02
49           	8.413866e-02	1.585853e-02	1.215401e-01	1.449087e-01	-2.336861e-02
50           	8.399767e-02	1.572050e-02	1.215854e-01	1.447904e-01	-2.320497e-02
51           	8.489171e-02	1.571145e-02	1.231926e-01	1.464880e-01	-2.329541e-02
52           	8.675841e-02	1.585736e-02	1.264734e-01	1.499951e-01	-2.352172e-02
53           	8.745382e-02	1.593276e-02	1.277968e-01	1.513522e-01	-2.355541e-02
54           	8.788456e-02	1.596885e-02	1.288892e-01	1.523292e-01	-2.343996e-02
55           	8.785521e-02	1.595198e-02	1.291146e-01	1.524125e-01	-2.329792e-02
56           	8.776667e-02	1.586146e-02	1.294847e-01	1.525090e-01	-2.302432e-02
57           	8.778999e-02	1.579448e-02	1.298214e-01	1.527007e-01	-2.287931e-02
58           	8.814531e-02	1.577527e-02	1.306114e-01	1.534510e-01	-2.283961e-02
59           	8.892284e-02	1.582466e-02	1.321087e-01	1.549772e-01	-2.286847e-02
60           	8.935953e-02	1.584599e-02	1.330458e-01	1.558824e-01	-2.283662e-02
61           	9.029512e-02	1.589710e-02	1.351227e-01	1.578565e-01	-2.273375e-02
62           	9.088680e-02	1.589462e-02	1.366368e-01	1.592052e-01	-2.256841e-02
63           	9.120242e-02	1.584501e-02	1.376405e-01	1.600227e-01	-2.238215e-02
64           	9.130267e-02	1.577640e-02	1.381469e-01	1.603761e-01	-2.222921e-02
65           	9.133584e-02	1.572774e-02	1.384065e-01	1.605391e-01	-2.213259e-02
66           	9.145005e-02	1.571120e-02	1.387746e-01	1.608374e-01	-2.206274e-02
67           	9.151577e-02	1.571098e-02	1.389825e-01	1.610070e-01	-2.202451e-02
68           	9.222836e-02	1.574077e-02	1.407518e-01	1.626042e-01	-2.185248e-02
69           	9.298775e-02	1.575736e-02	1.426403e-01	1.643079e-01	-2.166761e-02
70           	9.309119e-02	1.575406e-02	1.429451e-01	1.645638e-01	-2.161862e-02
71           	9.337951e-02	1.571552e-02	1.438262e-01	1.652926e-01	-2.146642e-02
72           	9.403431e-02	1.561113e-02	1.456929e-01	1.668807e-01	-2.118788e-02
73           	9.413378e-02	1.559008e-02	1.460369e-01	1.671522e-01	-2.111534e-02
74           	9.447742e-02	1.552772e-02	1.471121e-01	1.680335e-01	-2.092136e-02
75           	9.452683e-02	1.552348e-02	1.473205e-01	1.681871e-01	-2.086659e-02
76           	9.481673e-02	1.551699e-02	1.482688e-01	1.689511e-01	-2.068231e-02
77           	9.488458e-02	1.551830e-02	1.485314e-01	1.691503e-01	-2.061887e-02
78           	9.500649e-02	1.551181e-02	1.489766e-01	1.694948e-01	-2.051819e-02
79           	9.564249e-02	1.545769e-02	1.509482e-01	1.711166e-01	-2.016839e-02
80           	9.580937e-02	1.543924e-02	1.514889e-01	1.715538e-01	-2.006490e-02
81           	9.601814e-02	1.540862e-02	1.521396e-01	1.720879e-01	-1.994835e-02
82           	9.643781e-02	1.533126e-02	1.534319e-01	1.731538e-01	-1.972184e-02
83           	9.715507e-02	1.522781e-02	1.554292e-01	1.748697e-01	-1.944047e-02
84           	9.720268e-02	1.522513e-02	1.556101e-01	1.750077e-01	-1.939763e-02
85           	9.721103e-02	1.522742e-02	1.557146e-01	1.750683e-01	-1.935372e-02
86           	9.720329e-02	1.522398e-02	1.558724e-01	1.751395e-01	-1.926707e-02
87           	9.725635e-02	1.516589e-02	1.567139e-01	1.756133e-01	-1.889940e-02
88           	9.731319e-02	1.514417e-02	1.571031e-01	1.758647e-01	-1.876166e-02
89           	9.773816e-02	1.506580e-02	1.585961e-01	1.770362e-01	-1.844012e-02
90           	9.785159e-02	1.505309e-02	1.589448e-01	1.773240e-01	-1.837920e-02
91           	9.800144e-02	1.503566e-02	1.593713e-01	1.776871e-01	-1.831581e-02
92           	9.822346e-02	1.500167e-02	1.600241e-01	1.782355e-01	-1.821142e-02
93           	9.867111e-02	1.491694e-02	1.614208e-01	1.793815e-01	-1.796072e-02
94           	9.942249e-02	1.479718e-02	1.636592e-01	1.812521e-01	-1.759291e-02
95           	9.948087e-02	1.479112e-02	1.639102e-01	1.814360e-01	-1.752576e-02
96           	9.947750e-02	1.479160e-02	1.640321e-01	1.814935e-01	-1.746145e-02
97           	9.942220e-02	1.478442e-02	1.641461e-01	1.814952e-01	-1.734917e-02
98           	9.921006e-02	1.471711e-02	1.645345e-01	1.814773e-01	-1.694281e-02
99           	9.919118e-02	1.469682e-02	1.647312e-01	1.815568e-01	-1.682557e-02
100          	9.924155e-02	1.466347e-02	1.650886e-01	1.817858e-01	-1.669726e-02
101          	9.969523e-02	1.453575e-02	1.666779e-01	1.830342e-01	-1.635627e-02
102          	9.985751e-02	1.450861e-02	1.671788e-01	1.834469e-01	-1.626810e-02
103          	1.000451e-01	1.448645e-02	1.677203e-01	1.839052e-01	-1.618497e-02
104          	1.002607e-01	1.445978e-02	1.683738e-01	1.844476e-01	-1.607386e-02
105          	1.006232e-01	1.440138e-02	1.695852e-01	1.854158e-01	-1.583065e-02
106          	1.008202e-01	1.436229e-02	1.703242e-01	1.859823e-01	-1.565813e-02
107          	1.009576e-01	1.432090e-02	1.709745e-01	1.864449e-01	-1.547037e-02
108          	1.012069e-01	1.420643e-02	1.723721e-01	1.873930e-01	-1.502087e-02
109          	1.012154e-01	1.419526e-02	1.725437e-01	1.874873e-01	-1.494355e-02
110          	1.012012e-01	1.418817e-02	1.726391e-01	1.875208e-01	-1.488165e-02
111          	1.011744e-01	1.417280e-02	1.727549e-01	1.875519e-01	-1.479695e-02
112          	1.011436e-01	1.413575e-02	1.729736e-01	1.876304e-01	-1.465676e-02
113          	1.011367e-01	1.401525e-02	1.736704e-01	1.879719e-01	-1.430150e-02
114          	1.013203e-01	1.384124e-02	1.749545e-01	1.887976e-01	-1.384307e-02
115          	1.013950e-01	1.383042e-02	1.752271e-01	1.890086e-01	-1.378142e-02
116          	1.014833e-01	1.383368e-02	1.754749e-01	1.892207e-01	-1.374582e-02
117          	1.016205e-01	1.383690e-02	1.758564e-01	1.895487e-01	-1.369233e-02
118          	1.022098e-01	1.380851e-02	1.775083e-01	1.909639e-01	-1.345565e-02
119          	1.023096e-01	1.379694e-02	1.779018e-01	1.912605e-01	-1.335867e-02
120          	1.023860e-01	1.376607e-02	1.783520e-01	1.915620e-01	-1.321002e-02
121          	1.024882e-01	1.364929e-02	1.793335e-01	1.921550e-01	-1.282147e-02
122          	1.025203e-01	1.349085e-02	1.802751e-01	1.926579e-01	-1.238277e-02
123          	1.025143e-01	1.347124e-02	1.804078e-01	1.927182e-01	-1.231036e-02
124          	1.025007e-01	1.346091e-02	1.804812e-01	1.927413e-01	-1.226008e-02
125          	1.024539e-01	1.341388e-02	1.806680e-01	1.927879e-01	-1.211985e-02
126          	1.024593e-01	1.340741e-02	1.807981e-01	1.928583e-01	-1.206025e-02
127          	1.025484e-01	1.333912e-02	1.814886e-01	1.932927e-01	-1.180411e-02
128          	1.026164e-01	1.331016e-02	1.818844e-01	1.935586e-01	-1.167419e-02
129          	1.029178e-01	1.318831e-02	1.833037e-01	1.945697e-01	-1.126595e-02
130          	1.029915e-01	1.316499e-02	1.836562e-01	1.948196e-01	-1.116337e-02
131          	1.031143e-01	1.311772e-02	1.842598e-01	1.952442e-01	-1.098441e-02
132          	1.031568e-01	1.309919e-02	1.845170e-01	1.954154e-01	-1.089833e-02
133          	1.032688e-01	1.300548e-02	1.853112e-01	1.959244e-01	-1.061317e-02
134          	1.032911e-01	1.298534e-02	1.855413e-01	1.960618e-01	-1.052048e-02
135          	1.033411e-01	1.288247e-02	1.862584e-01	1.964703e-01	-1.021183e-02
136          	1.033546e-01	1.286230e-02	1.864693e-01	1.965893e-01	-1.011994e-02
137          	1.033705e-01	1.283596e-02	1.867238e-01	1.967324e-01	-1.000858e-02
138          	1.034234e-01	1.273289e-02	1.875031e-01	1.971750e-01	-9.671913e-03
139          	1.034488e-01	1.271435e-02	1.877433e-01	1.973205e-01	-9.577150e-03
140          	1.035310e-01	1.265958e-02	1.883307e-01	1.976963e-01	-9.365610e-03
141          	1.035738e-01	1.264024e-02	1.886032e-01	1.978754e-01	-9.272160e-03
142          	1.037468e-01	1.254194e-02	1.895645e-01	1.985291e-01	-8.964582e-03
143          	1.037848e-01	1.252528e-02	1.898007e-01	1.986851e-01	-8.884403e-03
144          	1.038236e-01	1.250050e-02	1.900826e-01	1.988649e-01	-8.782276e-03
145          	1.039281e-01	1.238222e-02	1.909665e-01	1.994113e-01	-8.444811e-03
146          	1.039527e-01	1.235456e-02	1.912270e-01	1.995662e-01	-8.339272e-03
147          	1.039701e-01	1.225540e-02	1.918328e-01	1.998866e-01	-8.053718e-03
148          	1.039725e-01	1.224608e-02	1.919549e-01	1.999500e-01	-7.995083e-03
149          	1.039402e-01	1.219794e-02	1.922385e-01	2.000595e-01	-7.820990e-03
150          	1.039404e-01	1.218969e-02	1.923562e-01	2.001185e-01	-7.762250e-03
151          	1.039493e-01	1.213553e-02	1.927635e-01	2.003311e-01	-7.567532e-03
152          	1.039717e-01	1.210556e-02	1.930394e-01	2.004915e-01	-7.452016e-03
153          	1.040800e-01	1.197692e-02	1.940187e-01	2.010894e-01	-7.070687e-03
154          	1.041192e-01	1.195625e-02	1.942775e-01	2.012579e-01	-6.980414e-03
155          	1.042596e-01	1.187593e-02	1.950714e-01	2.017953e-01	-6.723929e-03
156          	1.042907e-01	1.186771e-02	1.952456e-01	2.019136e-01	-6.667937e-03
157          	1.043712e-01	1.181631e-02	1.957618e-01	2.022521e-01	-6.490328e-03
158          	1.043879e-01	1.180536e-02	1.959167e-01	2.023463e-01	-6.429569e-03
159          	1.043618e-01	1.173130e-02	1.963060e-01	2.025148e-01	-6.208850e-03
160          	1.043589e-01	1.171651e-02	1.964338e-01	2.025758e-01	-6.142048e-03
161          	1.042909e-01	1.162509e-02	1.968070e-01	2.026944e-01	-5.887431e-03
162          	1.042890e-01	1.160580e-02	1.969544e-01	2.027662e-01	-5.811855e-03
163          	1.042924e-01	1.157665e-02	1.971635e-01	2.028741e-01	-5.710636e-03
164          	1.043039e-01	1.144351e-02	1.979154e-01	2.032616e-01	-5.346172e-03
165          	1.043304e-01	1.141818e-02	1.981579e-01	2.034093e-01	-5.251466e-03
166          	1.044186e-01	1.134816e-02	1.987918e-01	2.038145e-01	-5.022679e-03
167          	1.044436e-01	1.134463e-02	1.989257e-01	2.039064e-01	-4.980741e-03
168          	1.044666e-01	1.134117e-02	1.990602e-01	2.039967e-01	-4.936490e-03
169          	1.045320e-01	1.129707e-02	1.995419e-01	2.043029e-01	-4.761012e-03
170          	1.045533e-01	1.128179e-02	1.997311e-01	2.044189e-01	-4.687784e-03
171          	1.045728e-01	1.119209e-02	2.003061e-01	2.047258e-01	-4.419744e-03
172          	1.045783e-01	1.117239e-02	2.004656e-01	2.048111e-01	-4.345559e-03
173          	1.045245e-01	1.106401e-02	2.009098e-01	2.049793e-01	-4.069575e-03
174          	1.045215e-01	1.104877e-02	2.010163e-01	2.050296e-01	-4.013342e-03
175          	1.044691e-01	1.098638e-02	2.012413e-01	2.050898e-01	-3.848467e-03
176          	1.044711e-01	1.097974e-02	2.013280e-01	2.051351e-01	-3.807081e-03
177          	1.044653e-01	1.093935e-02	2.015958e-01	2.052632e-01	-3.667382e-03
178          	1.044752e-01	1.092924e-02	2.017236e-01	2.053370e-01	-3.613382e-03
179          	1.044969e-01	1.086117e-02	2.021979e-01	2.055958e-01	-3.397972e-03
180          	1.045127e-01	1.084383e-02	2.023687e-01	2.056970e-01	-3.328331e-03
181          	1.045340e-01	1.076298e-02	2.028790e-01	2.059735e-01	-3.094450e-03
182          	1.045429e-01	1.075064e-02	2.030024e-01	2.060441e-01	-3.041672e-03
183          	1.045491e-01	1.073241e-02	2.031497e-01	2.061240e-01	-2.974253e-03
184          	1.045277e-01	1.065215e-02	2.035603e-01	2.063078e-01	-2.747502e-03
185          	1.045310e-01	1.063798e-02	2.036842e-01	2.063731e-01	-2.688917e-03
186          	1.045119e-01	1.058543e-02	2.039701e-01	2.064969e-01	-2.526793e-03
187          	1.045148e-01	1.057792e-02	2.040559e-01	2.065428e-01	-2.486896e-03
188          	1.044926e-01	1.052765e-02	2.043102e-01	2.066477e-01	-2.337545e-03
189          	1.044952e-01	1.051567e-02	2.044118e-01	2.067011e-01	-2.289267e-03
190          	1.044609e-01	1.045251e-02	2.046844e-01	2.068031e-01	-2.118748e-03
191          	1.044628e-01	1.044088e-02	2.047804e-01	2.068530e-01	-2.072645e-03
192          	1.044643e-01	1.042480e-02	2.048995e-01	2.069141e-01	-2.014540e-03
193          	1.044451e-01	1.035579e-02	2.052443e-01	2.070673e-01	-1.822973e-03
194          	1.044522e-01	1.033862e-02	2.053804e-01	2.071424e-01	-1.762048e-03
195          	1.044563e-01	1.028183e-02	2.057229e-01	2.073177e-01	-1.594853e-03
196          	1.044652e-01	1.027538e-02	2.058092e-01	2.073698e-01	-1.560654e-03
197          	1.044777e-01	1.026563e-02	2.059265e-01	2.074409e-01	-1.514425e-03
198          	1.044905e-01	1.022748e-02	2.062307e-01	2.076059e-01	-1.375213e-03
199          	1.044975e-01	1.021854e-02	2.063332e-01	2.076641e-01	-1.330910e-03
200          	1.044825e-01	1.016475e-02	2.066317e-01	2.077983e-01	-1.166597e-03
201          	1.044425e-01	1.011715e-02	2.067978e-01	2.078414e-01	-1.043611e-03
202          	1.044400e-01	1.011319e-02	2.068266e-01	2.078532e-01	-1.026679e-03
203          	1.044359e-01	1.010909e-02	2.068527e-01	2.078622e-01	-1.009491e-03
204          	1.044007e-01	1.007624e-02	2.069309e-01	2.078662e-01	-9.352859e-04
205          	1.044001e-01	1.006792e-02	2.069962e-01	2.078982e-01	-9.019707e-04
206          	1.043903e-01	1.001221e-02	2.072854e-01	2.080330e-01	-7.475520e-04
207          	1.043968e-01	9.999674e-03	2.073947e-01	2.080942e-01	-6.995007e-04
208          	1.044270e-01	9.946740e-03	2.078022e-01	2.083281e-01	-5.259372e-04
209          	1.044361e-01	9.942699e-03	2.078751e-01	2.083736e-01	-4.985399e-04
210          	1.044457e-01	9.939010e-03	2.079491e-01	2.084202e-01	-4.711496e-04
211          	1.044740e-01	9.917867e-03	2.082038e-01	2.085759e-01	-3.721148e-04
212          	1.044793e-01	9.897691e-03	2.083725e-01	2.086655e-01	-2.930262e-04
213          	1.044776e-01	9.895058e-03	2.084008e-01	2.086779e-01	-2.771758e-04
214          	1.044280e-01	9.865376e-03	2.084070e-01	2.086315e-01	-2.244821e-04
215          	1.044211e-01	9.858670e-03	2.084346e-01	2.086384e-01	-2.038340e-04
216          	1.044156e-01	9.847056e-03	2.084909e-01	2.086611e-01	-1.701627e-04
217          	1.043962e-01	9.794609e-03	2.087052e-01	2.087489e-01	-4.364147e-05
218          	1.043999e-01	9.777869e-03	2.088153e-01	2.088076e-01	7.778578e-06
219          	1.044319e-01	9.736993e-03	2.091354e-01	2.089996e-01	1.357976e-04
220          	1.044479e-01	9.735715e-03	2.092068e-01	2.090513e-01	1.555515e-04
221          	1.044658e-01	9.738079e-03	2.092672e-01	2.090994e-01	1.678107e-04
222          	1.044923e-01	9.740677e-03	2.093537e-01	2.091691e-01	1.845829e-04
223          	1.045998e-01	9.746534e-03	2.096859e-01	2.094427e-01	2.431835e-04
224          	1.046510e-01	9.737404e-03	2.099038e-01	2.096029e-01	3.008463e-04
225          	1.046469e-01	9.732632e-03	2.099242e-01	2.096091e-01	3.151589e-04
226          	1.046321e-01	9.723819e-03	2.099285e-01	2.095964e-01	3.321363e-04
227          	1.045294e-01	9.661704e-03	2.098957e-01	2.094772e-01	4.184094e-04
228          	1.045194e-01	9.650063e-03	2.099259e-01	2.094824e-01	4.435251e-04
229          	1.045179e-01	9.614076e-03	2.100815e-01	2.095586e-01	5.228769e-04
230          	1.045431e-01	9.612699e-03	2.101690e-01	2.096276e-01	5.414301e-04
231          	1.047063e-01	9.631746e-03	2.105569e-01	2.099848e-01	5.721383e-04
232          	1.047392e-01	9.637323e-03	2.106354e-01	2.100570e-01	5.784653e-04
233          	1.049047e-01	9.659847e-03	2.110009e-01	2.104052e-01	5.957161e-04
234          	1.049750e-01	9.658195e-03	2.111961e-01	2.105731e-01	6.230445e-04
235          	1.049618e-01	9.649210e-03	2.112025e-01	2.105630e-01	6.394575e-04
236          	1.048517e-01	9.602107e-03	2.110864e-01	2.103949e-01	6.915433e-04
237          	1.048425e-01	9.596682e-03	2.110916e-01	2.103883e-01	7.033389e-04
238          	1.048207e-01	9.567725e-03	2.111449e-01	2.103932e-01	7.517065e-04
239          	1.048880e-01	9.559212e-03	2.113450e-01	2.105605e-01	7.845296e-04
240          	1.050420e-01	9.579571e-03	2.116649e-01	2.108744e-01	7.904697e-04
241          	1.050672e-01	9.585038e-03	2.117168e-01	2.109256e-01	7.912211e-04
242          	1.051286e-01	9.594872e-03	2.118445e-01	2.110508e-01	7.936757e-04
243          	1.053973e-01	9.625749e-03	2.123998e-01	2.115972e-01	8.026121e-04
244          	1.055399e-01	9.628758e-03	2.127313e-01	2.119056e-01	8.257672e-04
245          	1.055357e-01	9.624318e-03	2.127415e-01	2.119064e-01	8.350715e-04
246          	1.054322e-01	9.581311e-03	2.126097e-01	2.117370e-01	8.727167e-04
247          	1.054153e-01	9.574773e-03	2.125934e-01	2.117121e-01	8.813771e-04
248          	1.054093e-01	9.568763e-03	2.125993e-01	2.117089e-01	8.903856e-04
249          	1.054539e-01	9.549722e-03	2.127340e-01	2.118209e-01	9.130578e-04
250          	1.054957e-01	9.551100e-03	2.128283e-01	2.119099e-01	9.184190e-04
251          	1.057737e-01	9.579380e-03	2.133732e-01	2.124603e-01	9.128822e-04
252          	1.058445e-01	9.589530e-03	2.135147e-01	2.126019e-01	9.128166e-04
253          	1.059146e-01	9.599320e-03	2.136559e-01	2.127426e-01	9.133388e-04
254          	1.060851e-01	9.615689e-03	2.140040e-01	2.130871e-01	9.169002e-04
255          	1.063426e-01	9.634403e-03	2.145281e-01	2.136066e-01	9.214237e-04
256          	1.063679e-01	9.634056e-03	2.145888e-01	2.136623e-01	9.264964e-04
257          	1.063677e-01	9.610006e-03	2.146222e-01	2.136788e-01	9.434097e-04
258          	1.063599e-01	9.606946e-03	2.146142e-01	2.136670e-01	9.472080e-04
259          	1.063550e-01	9.604089e-03	2.146114e-01	2.136607e-01	9.506845e-04
260          	1.063702e-01	9.589584e-03	2.146528e-01	2.136966e-01	9.562128e-04
261          	1.064713e-01	9.588815e-03	2.148474e-01	2.138950e-01	9.524261e-04
262          	1.066753e-01	9.609876e-03	2.152328e-01	2.142917e-01	9.410866e-04
263          	1.067331e-01	9.618711e-03	2.153461e-01	2.144062e-01	9.398990e-04
264          	1.068330e-01	9.632201e-03	2.155456e-01	2.146058e-01	9.398365e-04
265          	1.070528e-01	9.655514e-03	2.159914e-01	2.150485e-01	9.429051e-04
266          	1.073630e-01	9.682646e-03	2.166154e-01	2.156707e-01	9.446875e-04
267          	1.073966e-01	9.684039e-03	2.166869e-01	2.157400e-01	9.468301e-04
268          	1.074368e-01	9.663828e-03	2.167803e-01	2.158270e-01	9.533838e-04
269          	1.074318e-01	9.660027e-03	2.167739e-01	2.158188e-01	9.551348e-04
270          	1.074263e-01	9.655535e-03	2.167659e-01	2.158092e-01	9.566957e-04
271          	1.074407e-01	9.635826e-03	2.167927e-01	2.158370e-01	9.556867e-04
272          	1.074764e-01	9.636395e-03	2.168628e-01	2.159078e-01	9.549852e-04
273          	1.077540e-01	9.660935e-03	2.173946e-01	2.164512e-01	9.433465e-04
274          	1.080480e-01	9.695447e-03	2.179703e-01	2.170332e-01	9.371363e-04
275          	1.080810e-01	9.700155e-03	2.180395e-01	2.171008e-01	9.387588e-04
276          	1.081774e-01	9.707202e-03	2.182528e-01	2.173038e-01	9.489927e-04
277          	1.083349e-01	9.713395e-03	2.185996e-01	2.176347e-01	9.649400e-04
278          	1.084128e-01	9.708998e-03	2.187714e-01	2.177985e-01	9.728712e-04
279          	1.084176e-01	9.709181e-03	2.187822e-01	2.178087e-01	9.735657e-04
280          	1.084265e-01	9.707680e-03	2.187996e-01	2.178263e-01	9.732695e-04
281          	1.085226e-01	9.692620e-03	2.189729e-01	2.180091e-01	9.638649e-04
282          	1.086807e-01	9.690287e-03	2.192780e-01	2.183196e-01	9.583285e-04
283          	1.087205e-01	9.694336e-03	2.193608e-01	2.184009e-01	9.598662e-04
284          	1.089982e-01	9.727813e-03	2.199385e-01	2.189674e-01	9.710217e-04
285          	1.090685e-01	9.736736e-03	2.200912e-01	2.191141e-01	9.771297e-04
286          	1.091401e-01	9.743548e-03	2.202509e-01	2.192655e-01	9.853185e-04
287          	1.092670e-01	9.749725e-03	2.205398e-01	2.195369e-01	1.002863e-03
288          	1.094157e-01	9.752747e-03	2.208711e-01	2.198513e-01	1.019795e-03
289          	1.095909e-01	9.748569e-03	2.212469e-01	2.202144e-01	1.032535e-03
290          	1.096065e-01	9.748201e-03	2.212792e-01	2.202461e-01	1.033157e-03
291          	1.096201e-01	9.745689e-03	2.213066e-01	2.202734e-01	1.033225e-03
292          	1.097090e-01	9.722754e-03	2.214865e-01	2.204523e-01	1.034237e-03
293          	1.097272e-01	9.722237e-03	2.215297e-01	2.204920e-01	1.037695e-03
294          	1.098651e-01	9.725440e-03	2.218465e-01	2.207883e-01	1.058174e-03
295          	1.101124e-01	9.750541e-03	2.223927e-01	2.213087e-01	1.083937e-03
296          	1.101387e-01	9.754165e-03	2.224551e-01	2.213663e-01	1.088810e-03
297          	1.101647e-01	9.757009e-03	2.225175e-01	2.214235e-01	1.094004e-03
298          	1.102546e-01	9.759851e-03	2.227321e-01	2.216206e-01	1.111457e-03
299          	1.104263e-01	9.760844e-03	2.231331e-01	2.219929e-01	1.140257e-03
300          	1.105602e-01	9.755117e-03	2.234475e-01	2.222839e-01	1.163592e-03
301          	1.105713e-01	9.754716e-03	2.234773e-01	2.223099e-01	1.167416e-03
302          	1.105863e-01	9.751675e-03	2.235205e-01	2.223466e-01	1.173917e-03
303          	1.106896e-01	9.724079e-03	2.237875e-01	2.225834e-01	1.204156e-03
304          	1.107166e-01	9.721421e-03	2.238589e-01	2.226461e-01	1.212857e-03
305          	1.108777e-01	9.719174e-03	2.242463e-01	2.230009e-01	1.245470e-03
306          	1.110353e-01	9.730886e-03	2.246126e-01	2.233416e-01	1.270973e-03
307          	1.110938e-01	9.736926e-03	2.247535e-01	2.234705e-01	1.282940e-03
308          	1.111255e-01	9.741076e-03	2.248321e-01	2.235415e-01	1.290567e-03
309          	1.111672e-01	9.743156e-03	2.249414e-01	2.236379e-01	1.303523e-03
310          	1.113260e-01	9.740539e-03	2.253624e-01	2.240072e-01	1.355250e-03
311          	1.114493e-01	9.731263e-03	2.256926e-01	2.242956e-01	1.397041e-03
312          	1.114691e-01	9.728228e-03	2.257488e-01	2.243434e-01	1.405320e-03
313          	1.115272e-01	9.705136e-03	2.259079e-01	2.244811e-01	1.426793e-03
314          	1.115370e-01	9.701971e-03	2.259413e-01	2.245076e-01	1.433667e-03
315          	1.115551e-01	9.696936e-03	2.260002e-01	2.245552e-01	1.445056e-03
316          	1.116723e-01	9.674039e-03	2.263445e-01	2.248446e-01	1.499923e-03
317          	1.117800e-01	9.666170e-03	2.266393e-01	2.250997e-01	1.539637e-03
318          	1.119860e-01	9.673547e-03	2.271367e-01	2.255543e-01	1.582355e-03
319          	1.120094e-01	9.677405e-03	2.271919e-01	2.256053e-01	1.586574e-03
320          	1.120266e-01	9.680271e-03	2.272358e-01	2.256445e-01	1.591279e-03
321          	1.121164e-01	9.683605e-03	2.274740e-01	2.258534e-01	1.620595e-03
322          	1.121955e-01	9.677790e-03	2.277094e-01	2.260503e-01	1.659180e-03
323          	1.122601e-01	9.662380e-03	2.279204e-01	2.262203e-01	1.700102e-03
324          	1.122760e-01	9.656456e-03	2.279778e-01	2.262650e-01	1.712894e-03
325          	1.123375e-01	9.624155e-03	2.281921e-01	2.264336e-01	1.758551e-03
326          	1.123570e-01	9.618643e-03	2.282553e-01	2.264846e-01	1.770722e-03
327          	1.124200e-01	9.605875e-03	2.284456e-01	2.266428e-01	1.802755e-03
328          	1.126321e-01	9.590063e-03	2.289973e-01	2.271308e-01	1.866479e-03
329          	1.127756e-01	9.591515e-03	2.293544e-01	2.274528e-01	1.901576e-03
330          	1.127892e-01	9.594186e-03	2.293895e-01	2.274839e-01	1.905596e-03
331          	1.127993e-01	9.596511e-03	2.294220e-01	2.275103e-01	1.911678e-03
332          	1.128104e-01	9.596954e-03	2.294673e-01	2.275441e-01	1.923203e-03
333          	1.128769e-01	9.586604e-03	2.297319e-01	2.277428e-01	1.989091e-03
334          	1.129718e-01	9.568710e-03	2.300655e-01	2.280046e-01	2.060965e-03
335          	1.130729e-01	9.549935e-03	2.303579e-01	2.282518e-01	2.106068e-03
336          	1.130960e-01	9.546142e-03	2.304153e-01	2.283036e-01	2.111646e-03
337          	1.131542e-01	9.533653e-03	2.305507e-01	2.284296e-01	2.121146e-03
338          	1.132817e-01	9.508352e-03	2.308541e-01	2.287087e-01	2.145366e-03
339          	1.132999e-01	9.505955e-03	2.309125e-01	2.287562e-01	2.156355e-03
340          	1.134628e-01	9.490953e-03	2.314139e-01	2.291698e-01	2.244093e-03
341          	1.135344e-01	9.488948e-03	2.316626e-01	2.293657e-01	2.296891e-03
342          	1.135431e-01	9.489936e-03	2.316943e-01	2.293902e-01	2.304067e-03
343          	1.135640e-01	9.489263e-03	2.317679e-01	2.294479e-01	2.319988e-03
344          	1.136195e-01	9.482176e-03	2.319448e-01	2.295919e-01	2.352947e-03
345          	1.137234e-01	9.463886e-03	2.322545e-01	2.298506e-01	2.403882e-03
346          	1.138145e-01	9.443789e-03	2.325235e-01	2.300763e-01	2.447288e-03
347          	1.138279e-01	9.441321e-03	2.325693e-01	2.301125e-01	2.456763e-03
348          	1.138739e-01	9.427471e-03	2.327256e-01	2.302367e-01	2.488939e-03
349          	1.139955e-01	9.396267e-03	2.330995e-01	2.305453e-01	2.554241e-03
350          	1.141139e-01	9.378701e-03	2.334395e-01	2.308337e-01	2.605823e-03
351          	1.142053e-01	9.380157e-03	2.336779e-01	2.310442e-01	2.633682e-03
352          	1.142649e-01	9.391549e-03	2.338275e-01	2.311787e-01	2.648811e-03
353          	1.142714e-01	9.392104e-03	2.338529e-01	2.311978e-01	2.655087e-03
354          	1.143069e-01	9.383357e-03	2.340051e-01	2.313094e-01	2.695651e-03
355          	1.143707e-01	9.361747e-03	2.342593e-01	2.315004e-01	2.758938e-03
356          	1.144437e-01	9.337802e-03	2.345126e-01	2.317000e-01	2.812604e-03
357          	1.144589e-01	9.334619e-03	2.345640e-01	2.317409e-01	2.823108e-03
358          	1.145160e-01	9.320677e-03	2.347360e-01	2.318841e-01	2.851969e-03
359          	1.146735e-01	9.290093e-03	2.351665e-01	2.322568e-01	2.909728e-03
360          	1.147018e-01	9.286643e-03	2.352511e-01	2.323273e-01	2.923744e-03
361          	1.149471e-01	9.275005e-03	2.358909e-01	2.328925e-01	2.998389e-03
362          	1.149603e-01	9.274771e-03	2.359396e-01	2.329301e-01	3.009545e-03
363          	1.149865e-01	9.274540e-03	2.360656e-01	2.330193e-01	3.046262e-03
364          	1.149909e-01	9.274265e-03	2.360946e-01	2.330382e-01	3.056466e-03
365          	1.150173e-01	9.264216e-03	2.362341e-01	2.331343e-01	3.099744e-03
366          	1.150976e-01	9.239448e-03	2.365462e-01	2.333707e-01	3.175463e-03
367          	1.152071e-01	9.213624e-03	2.368836e-01	2.336489e-01	3.234703e-03
368          	1.152254e-01	9.211042e-03	2.369353e-01	2.336931e-01	3.242251e-03
369          	1.153303e-01	9.193013e-03	2.371875e-01	2.339240e-01	3.263435e-03
370          	1.153474e-01	9.190683e-03	2.372399e-01	2.339673e-01	3.272562e-03
371          	1.155486e-01	9.167890e-03	2.377729e-01	2.344350e-01	3.337885e-03