-0.5 	-1 	0.5 	39.8065 	-0.0719756 	1.23465e-18
-0.484375 	-1 	0.5 	39.8082 	-0.0757098 	-4.02416e-19
-0.46875 	-1 	0.5 	39.8095 	-0.0800275 	-3.90769e-20
-0.453125 	-1 	0.5 	39.8106 	-0.0840618 	-7.07402e-19
-0.4375 	-1 	0.5 	39.8118 	-0.0878843 	-6.31695e-19
-0.421875 	-1 	0.5 	39.8119 	-0.0914954 	-1.32263e-19
-0.40625 	-1 	0.5 	39.8144 	-0.0953518 	-1.65832e-19
-0.390625 	-1 	0.5 	39.8161 	-0.0998052 	-3.39211e-19
-0.375 	-1 	0.5 	39.8195 	-0.104105 	-1.75778e-18
-0.359375 	-1 	0.5 	39.8202 	-0.107661 	4.42429e-19
-0.34375 	-1 	0.5 	39.8227 	-0.111483 	3.19756e-19
-0.328125 	-1 	0.5 	39.8251 	-0.115737 	3.65965e-20
-0.3125 	-1 	0.5 	39.8279 	-0.11915 	2.21132e-20
-0.296875 	-1 	0.5 	39.8303 	-0.122147 	1.44366e-19
-0.28125 	-1 	0.5 	39.8332 	-0.125667 	1.00406e-19
-0.265625 	-1 	0.5 	39.8362 	-0.129298 	-3.88735e-19
-0.25 	-1 	0.5 	39.8394 	-0.132966 	4.85596e-19
-0.234375 	-1 	0.5 	39.8433 	-0.13631 	2.43792e-20
-0.21875 	-1 	0.5 	39.8467 	-0.139608 	-1.35534e-19
-0.203125 	-1 	0.5 	39.8506 	-0.142533 	7.02377e-20
-0.1875 	-1 	0.5 	39.8547 	-0.145474 	8.38168e-20
-0.171875 	-1 	0.5 	39.8586 	-0.148658 	1.84275e-19
-0.15625 	-1 	0.5 	39.8629 	-0.151709 	1.45818e-19
-0.140625 	-1 	0.5 	39.8661 	-0.153928 	5.8242e-21
-0.125 	-1 	0.5 	39.8712 	-0.156816 	5.85316e-20
-0.109375 	-1 	0.5 	39.876 	-0.15893 	1.53428e-19
-0.09375 	-1 	0.5 	39.8804 	-0.160385 	6.71204e-19
-0.078125 	-1 	0.5 	39.8852 	-0.16291 	4.95794e-20
-0.0625 	-1 	0.5 	39.8901 	-0.164973 	-2.00339e-19
-0.046875 	-1 	0.5 	39.8951 	-0.166671 	5.95347e-20
-0.03125 	-1 	0.5 	39.9 	-0.168711 	1.60118e-19
-0.015625 	-1 	0.5 	39.905 	-0.16975 	-2.6157e-20
0 	-1 	0.5 	39.9101 	-0.170798 	-7.45196e-19
0.015625 	-1 	0.5 	39.9151 	-0.17175 	-6.4924e-19
0.03125 	-1 	0.5 	39.9206 	-0.172416 	-4.5556e-19
0.046875 	-1 	0.5 	39.926 	-0.173244 	8.62266e-23
0.0625 	-1 	0.5 	39.9312 	-0.17302 	1.69366e-20
0.078125 	-1 	0.5 	39.9369 	-0.172661 	3.83314e-20
0.09375 	-1 	0.5 	39.9417 	-0.172095 	-6.52577e-20
0.109375 	-1 	0.5 	39.9476 	-0.171704 	1.31335e-19
0.125 	-1 	0.5 	39.9535 	-0.170773 	-2.11816e-20
0.140625 	-1 	0.5 	39.9589 	-0.170294 	-2.68821e-19
0.15625 	-1 	0.5 	39.9636 	-0.169209 	-4.08792e-19
0.171875 	-1 	0.5 	39.9688 	-0.167444 	-2.45461e-19
0.1875 	-1 	0.5 	39.9738 	-0.165633 	1.2153e-19
0.203125 	-1 	0.5 	39.979 	-0.163884 	-1.85033e-19
0.21875 	-1 	0.5 	39.9841 	-0.162212 	-2.61999e-19
0.234375 	-1 	0.5 	39.9892 	-0.160436 	-1.93606e-19
0.25 	-1 	0.5 	39.9941 	-0.157492 	9.11785e-20
0.265625 	-1 	0.5 	39.9988 	-0.154588 	8.69028e-20
0.28125 	-1 	0.5 	40.0033 	-0.152246 	6.2392e-20
0.296875 	-1 	0.5 	40.0082 	-0.148597 	1.2245e-19
0.3125 	-1 	0.5 	40.0122 	-0.14572 	8.78569e-20
0.328125 	-1 	0.5 	40.0165 	-0.142321 	2.70382e-21
0.34375 	-1 	0.5 	40.0205 	-0.138561 	-5.89884e-20
0.359375 	-1 	0.5 	40.024 	-0.134765 	-5.25423e-20
0.375 	-1 	0.5 	40.0277 	-0.130678 	5.95926e-22
0.390625 	-1 	0.5 	40.0315 	-0.126639 	1.14913e-19
0.40625 	-1 	0.5 	40.0347 	-0.122355 	1.50241e-19
0.421875 	-1 	0.5 	40.0377 	-0.118061 	2.16825e-19
0.4375 	-1 	0.5 	40.0408 	-0.11372 	1.79899e-19
0.453125 	-1 	0.5 	40.0436 	-0.109281 	8.35722e-20
0.46875 	-1 	0.5 	40.0457 	-0.104363 	-4.14815e-21
0.484375 	-1 	0.5 	40.0474 	-0.0995394 	7.86525e-19
0.5 	-1 	0.5 	40.0492 	-0.094841 	4.78506e-19
0.515625 	-1 	0.5 	40.0512 	-0.0894451 	1.14877e-19
0.53125 	-1 	0.5 	40.0523 	-0.0846905 	-1.10483e-18
0.546875 	-1 	0.5 	40.0536 	-0.0793127 	4.69964e-19
0.5625 	-1 	0.5 	40.0548 	-0.0748977 	-5.02465e-19
0.578125 	-1 	0.5 	40.0557 	-0.0702137 	-8.91519e-19
0.59375 	-1 	0.5 	40.0563 	-0.0649296 	2.02588e-19
0.609375 	-1 	0.5 	40.0561 	-0.0599769 	2.74102e-19
0.625 	-1 	0.5 	40.0561 	-0.0553683 	6.77978e-19
0.640625 	-1 	0.5 	40.0558 	-0.050744 	3.73899e-19
0.65625 	-1 	0.5 	40.0555 	-0.0457889 	3.10949e-19
0.671875 	-1 	0.5 	40.055 	-0.0409626 	-3.0042e-19
0.6875 	-1 	0.5 	40.0539 	-0.0363878 	1.72838e-19
0.703125 	-1 	0.5 	40.0531 	-0.0319998 	-7.13998e-20
0.71875 	-1 	0.5 	40.0514 	-0.027602 	-3.60102e-19
0.734375 	-1 	0.5 	40.0502 	-0.0230095 	1.33772e-19
0.75 	-1 	0.5 	40.0483 	-0.0188659 	-7.17252e-21
0.765625 	-1 	0.5 	40.0464 	-0.0146618 	-1.3991e-19
0.78125 	-1 	0.5 	40.044 	-0.0106658 	-9.69939e-20
0.796875 	-1 	0.5 	40.0417 	-0.00664412 	-4.40331e-20
0.8125 	-1 	0.5 	40.0399 	-0.00366638 	-5.71453e-20
0.828125 	-1 	0.5 	40.0375 	-0.000188517 	-8.41436e-20
0.84375 	-1 	0.5 	40.0347 	0.00368994 	-2.53476e-19
0.859375 	-1 	0.5 	40.0318 	0.00693585 	-2.08341e-19
0.875 	-1 	0.5 	40.0283 	0.0102841 	5.21842e-19
0.890625 	-1 	0.5 	40.026 	0.0123706 	-3.37894e-20
0.90625 	-1 	0.5 	40.0237 	0.0147842 	3.52654e-19
0.921875 	-1 	0.5 	40.0204 	0.0170221 	-2.34985e-19
0.9375 	-1 	0.5 	40.017 	0.0196065 	-7.60671e-19
0.953125 	-1 	0.5 	40.0132 	0.0217187 	-3.86717e-19
0.96875 	-1 	0.5 	40.0097 	0.023257 	-4.44632e-19
0.984375 	-1 	0.5 	40.0067 	0.0247908 	-5.4196e-20
1 	-1 	0.5 	40.0033 	0.0262915 	3.18035e-20
1.01562 	-1 	0.5 	39.9999 	0.0274401 	3.83631e-20
1.03125 	-1 	0.5 	39.9969 	0.0290773 	1.14707e-19
1.04688 	-1 	0.5 	39.993 	0.0307312 	2.84674e-19
1.0625 	-1 	0.5 	39.9892 	0.0309319 	5.95424e-20
1.07812 	-1 	0.5 	39.9864 	0.0315406 	-3.14679e-20
1.09375 	-1 	0.5 	39.9835 	0.0318224 	-1.1525e-18
1.10938 	-1 	0.5 	39.9799 	0.0320583 	-8.51609e-19
1.125 	-1 	0.5 	39.9762 	0.0322139 	6.77328e-20
1.14062 	-1 	0.5 	39.9726 	0.0322787 	1.11865e-19
1.15625 	-1 	0.5 	39.9692 	0.0326267 	-9.05983e-19
1.17188 	-1 	0.5 	39.9661 	0.0323576 	-9.70825e-19
1.1875 	-1 	0.5 	39.9631 	0.0313267 	1.10904e-19
1.20312 	-1 	0.5 	39.9603 	0.0303728 	-2.58675e-19
1.21875 	-1 	0.5 	39.9575 	0.0297533 	-6.99969e-19
1.23438 	-1 	0.5 	39.9547 	0.028669 	-1.74741e-20
1.25 	-1 	0.5 	39.9523 	0.0276946 	-7.25613e-20
1.26562 	-1 	0.5 	39.9494 	0.0265862 	-3.43277e-20
1.28125 	-1 	0.5 	39.9469 	0.0254887 	-1.53287e-19
1.29688 	-1 	0.5 	39.9447 	0.024433 	-1.53327e-19
1.3125 	-1 	0.5 	39.9425 	0.0229646 	-9.09047e-20
1.32812 	-1 	0.5 	39.9402 	0.0215112 	-5.68675e-20
1.34375 	-1 	0.5 	39.938 	0.0200546 	-4.16644e-20
1.35938 	-1 	0.5 	39.936 	0.0185261 	-3.10709e-19
1.375 	-1 	0.5 	39.934 	0.0169771 	4.51488e-20
1.39062 	-1 	0.5 	39.9319 	0.0152933 	3.9195e-19
1.40625 	-1 	0.5 	39.93 	0.0136746 	2.36159e-20
1.42188 	-1 	0.5 	39.9283 	0.011718 	-7.95966e-20
1.4375 	-1 	0.5 	39.9268 	0.00964365 	2.38793e-19
1.45312 	-1 	0.5 	39.9253 	0.00788508 	1.70855e-19
1.46875 	-1 	0.5 	39.9245 	0.00618279 	1.28189e-18
1.48438 	-1 	0.5 	39.9233 	0.00423736 	1.07317e-18
-0.5 	-0.984375 	0.5 	39.8026 	-0.0723824 	-9.08141e-19
-0.484375 	-0.984375 	0.5 	39.8036 	-0.076521 	-8.21365e-19
-0.46875 	-0.984375 	0.5 	39.8053 	-0.0812111 	3.60879e-19
-0.453125 	-0.984375 	0.5 	39.8067 	-0.0854017 	2.92014e-19
-0.4375 	-0.984375 	0.5 	39.8077 	-0.0893141 	-2.4815e-19
-0.421875 	-0.984375 	0.5 	39.8089 	-0.0931031 	-1.97821e-19
-0.40625 	-0.984375 	0.5 	39.8105 	-0.0964132 	-3.4824e-19
-0.390625 	-0.984375 	0.5 	39.8123 	-0.101257 	-5.29452e-19
-0.375 	-0.984375 	0.5 	39.8154 	-0.105864 	-1.63711e-18
-0.359375 	-0.984375 	0.5 	39.8168 	-0.109466 	-8.90305e-19
-0.34375 	-0.984375 	0.5 	39.8181 	-0.113018 	4.23349e-19
-0.328125 	-0.984375 	0.5 	39.8206 	-0.117128 	9.28221e-20
-0.3125 	-0.984375 	0.5 	39.8234 	-0.121128 	-2.56091e-20
-0.296875 	-0.984375 	0.5 	39.8262 	-0.125038 	-1.77998e-19
-0.28125 	-0.984375 	0.5 	39.8292 	-0.128722 	-5.62388e-19
-0.265625 	-0.984375 	0.5 	39.8323 	-0.13248 	-7.19978e-19
-0.25 	-0.984375 	0.5 	39.8356 	-0.13632 	2.98262e-19
-0.234375 	-0.984375 	0.5 	39.8391 	-0.139569 	4.5443e-19
-0.21875 	-0.984375 	0.5 	39.843 	-0.142912 	-2.24824e-19
-0.203125 	-0.984375 	0.5 	39.8472 	-0.146436 	-5.92303e-20
-0.1875 	-0.984375 	0.5 	39.8514 	-0.149737 	-3.96309e-21
-0.171875 	-0.984375 	0.5 	39.8551 	-0.152703 	1.94713e-19
-0.15625 	-0.984375 	0.5 	39.8596 	-0.155554 	3.9854e-19
-0.140625 	-0.984375 	0.5 	39.8639 	-0.158952 	4.67362e-20
-0.125 	-0.984375 	0.5 	39.8685 	-0.160517 	1.33179e-19
-0.109375 	-0.984375 	0.5 	39.8733 	-0.163243 	2.09771e-19
-0.09375 	-0.984375 	0.5 	39.8782 	-0.166109 	3.15506e-20
-0.078125 	-0.984375 	0.5 	39.883 	-0.16851 	-7.19695e-19
-0.0625 	-0.984375 	0.5 	39.8878 	-0.17007 	-5.65382e-19
-0.046875 	-0.984375 	0.5 	39.8929 	-0.171837 	-7.47225e-19
-0.03125 	-0.984375 	0.5 	39.898 	-0.17366 	2.98798e-19
-0.015625 	-0.984375 	0.5 	39.9033 	-0.175058 	-1.99821e-19
0 	-0.984375 	0.5 	39.9089 	-0.176119 	-1.48041e-18
0.015625 	-0.984375 	0.5 	39.9135 	-0.176997 	-4.75829e-19
0.03125 	-0.984375 	0.5 	39.9195 	-0.178113 	-5.8963e-19
0.046875 	-0.984375 	0.5 	39.9244 	-0.178256 	-2.20414e-19
0.0625 	-0.984375 	0.5 	39.9298 	-0.178457 	1.08797e-21
0.078125 	-0.984375 	0.5 	39.9355 	-0.178117 	2.47549e-20
0.09375 	-0.984375 	0.5 	39.9413 	-0.177858 	5.78266e-20
0.109375 	-0.984375 	0.5 	39.9472 	-0.177111 	4.44966e-20
0.125 	-0.984375 	0.5 	39.9531 	-0.176106 	3.95318e-20
0.140625 	-0.984375 	0.5 	39.9593 	-0.175293 	-1.711e-19
0.15625 	-0.984375 	0.5 	39.9644 	-0.173912 	1.79159e-19
0.171875 	-0.984375 	0.5 	39.9696 	-0.172493 	3.01112e-19
0.1875 	-0.984375 	0.5 	39.975 	-0.170985 	2.02651e-19
0.203125 	-0.984375 	0.5 	39.9808 	-0.16911 	-7.17725e-19
0.21875 	-0.984375 	0.5 	39.986 	-0.167583 	-4.58516e-19
0.234375 	-0.984375 	0.5 	39.9911 	-0.165537 	2.30328e-19
0.25 	-0.984375 	0.5 	39.9967 	-0.164435 	-2.82426e-20
0.265625 	-0.984375 	0.5 	40.0009 	-0.159213 	2.22108e-19
0.28125 	-0.984375 	0.5 	40.0057 	-0.155832 	2.92362e-19
0.296875 	-0.984375 	0.5 	40.0103 	-0.153111 	1.38722e-19
0.3125 	-0.984375 	0.5 	40.0148 	-0.149594 	1.43044e-19
0.328125 	-0.984375 	0.5 	40.019 	-0.146053 	7.10169e-21
0.34375 	-0.984375 	0.5 	40.0237 	-0.142984 	-3.71195e-19
0.359375 	-0.984375 	0.5 	40.0279 	-0.138725 	-2.75972e-19
0.375 	-0.984375 	0.5 	40.0314 	-0.134576 	4.75543e-19
0.390625 	-0.984375 	0.5 	40.0355 	-0.130608 	-2.41724e-19
0.40625 	-0.984375 	0.5 	40.0388 	-0.125325 	2.34373e-20
0.421875 	-0.984375 	0.5 	40.0419 	-0.121067 	1.31371e-19
0.4375 	-0.984375 	0.5 	40.045 	-0.116282 	4.258e-19
0.453125 	-0.984375 	0.5 	40.0483 	-0.112025 	2.26421e-20
0.46875 	-0.984375 	0.5 	40.0502 	-0.107104 	-2.32071e-19
0.484375 	-0.984375 	0.5 	40.0522 	-0.101854 	-1.54124e-19
0.5 	-0.984375 	0.5 	40.0538 	-0.0965358 	-8.20133e-21
0.515625 	-0.984375 	0.5 	40.0558 	-0.0910147 	1.02084e-19
0.53125 	-0.984375 	0.5 	40.0576 	-0.0856516 	3.8654e-19
0.546875 	-0.984375 	0.5 	40.0586 	-0.0809551 	6.01303e-19
0.5625 	-0.984375 	0.5 	40.0596 	-0.0763465 	5.63095e-19
0.578125 	-0.984375 	0.5 	40.0605 	-0.0716768 	2.61023e-19
0.59375 	-0.984375 	0.5 	40.0609 	-0.0657466 	4.59549e-19
0.609375 	-0.984375 	0.5 	40.061 	-0.0605767 	5.67706e-19
0.625 	-0.984375 	0.5 	40.0609 	-0.0554594 	3.02368e-19
0.640625 	-0.984375 	0.5 	40.0605 	-0.0501498 	2.71241e-19
0.65625 	-0.984375 	0.5 	40.0602 	-0.0449187 	4.60059e-19
0.671875 	-0.984375 	0.5 	40.0596 	-0.0402209 	-3.73611e-19
0.6875 	-0.984375 	0.5 	40.0584 	-0.0354521 	-2.81078e-19
0.703125 	-0.984375 	0.5 	40.0571 	-0.030693 	-4.97384e-20
0.71875 	-0.984375 	0.5 	40.0557 	-0.0260649 	1.38571e-21
0.734375 	-0.984375 	0.5 	40.0544 	-0.0213743 	6.77761e-20
0.75 	-0.984375 	0.5 	40.0522 	-0.0167367 	-1.29228e-20
0.765625 	-0.984375 	0.5 	40.0502 	-0.0124724 	-1.059e-19
0.78125 	-0.984375 	0.5 	40.0483 	-0.00762087 	-4.82154e-19
0.796875 	-0.984375 	0.5 	40.0455 	-0.00460448 	-2.20667e-19
0.8125 	-0.984375 	0.5 	40.0428 	-0.00119089 	-1.28598e-19
0.828125 	-0.984375 	0.5 	40.0403 	0.00228061 	-5.07114e-19
0.84375 	-0.984375 	0.5 	40.0376 	0.0061057 	-4.98089e-19
0.859375 	-0.984375 	0.5 	40.0347 	0.0104401 	-1.05316e-18
0.875 	-0.984375 	0.5 	40.0317 	0.0133572 	-1.1324e-18
0.890625 	-0.984375 	0.5 	40.0286 	0.0151798 	-3.09723e-19
0.90625 	-0.984375 	0.5 	40.0255 	0.0175759 	-3.54216e-19
0.921875 	-0.984375 	0.5 	40.0221 	0.0201398 	-5.53775e-19
0.9375 	-0.984375 	0.5 	40.0187 	0.0227037 	-7.53333e-19
0.953125 	-0.984375 	0.5 	40.0149 	0.0248887 	-4.44617e-19
0.96875 	-0.984375 	0.5 	40.0116 	0.0264436 	-1.68692e-19
0.984375 	-0.984375 	0.5 	40.008 	0.0284837 	-2.36818e-20
1 	-0.984375 	0.5 	40.0044 	0.0296482 	7.56212e-20
1.01562 	-0.984375 	0.5 	40.0012 	0.0309601 	1.17265e-19
1.03125 	-0.984375 	0.5 	39.998 	0.0323386 	1.41123e-19
1.04688 	-0.984375 	0.5 	39.994 	0.0333058 	1.36013e-19
1.0625 	-0.984375 	0.5 	39.99 	0.0342731 	1.30883e-19
1.07812 	-0.984375 	0.5 	39.9865 	0.0347845 	-6.22953e-20
1.09375 	-0.984375 	0.5 	39.983 	0.0348674 	2.18878e-19
1.10938 	-0.984375 	0.5 	39.9797 	0.0346954 	6.8498e-19
1.125 	-0.984375 	0.5 	39.976 	0.0353641 	5.43876e-19
1.14062 	-0.984375 	0.5 	39.9723 	0.0357427 	1.35838e-18
1.15625 	-0.984375 	0.5 	39.9689 	0.0349726 	-1.6252e-19
1.17188 	-0.984375 	0.5 	39.9654 	0.0358941 	-1.72761e-18
1.1875 	-0.984375 	0.5 	39.9626 	0.0342273 	2.28207e-19
1.20312 	-0.984375 	0.5 	39.9593 	0.0334633 	9.38574e-19
1.21875 	-0.984375 	0.5 	39.9565 	0.0322983 	3.94454e-19
1.23438 	-0.984375 	0.5 	39.9537 	0.0311746 	-6.06786e-20
1.25 	-0.984375 	0.5 	39.9511 	0.030151 	-3.17538e-20
1.26562 	-0.984375 	0.5 	39.9484 	0.0291633 	3.66933e-20
1.28125 	-0.984375 	0.5 	39.9457 	0.0281756 	1.0514e-19
1.29688 	-0.984375 	0.5 	39.943 	0.0266976 	-2.52926e-19
1.3125 	-0.984375 	0.5 	39.9406 	0.0253867 	-8.4399e-19
1.32812 	-0.984375 	0.5 	39.9384 	0.0239744 	-9.13498e-19
1.34375 	-0.984375 	0.5 	39.9361 	0.0223139 	-8.65006e-20
1.35938 	-0.984375 	0.5 	39.9339 	0.020381 	5.20534e-19
1.375 	-0.984375 	0.5 	39.9317 	0.0184062 	1.66837e-18
1.39062 	-0.984375 	0.5 	39.9299 	0.0173585 	2.63997e-19
1.40625 	-0.984375 	0.5 	39.928 	0.0152391 	1.61137e-19
1.42188 	-0.984375 	0.5 	39.9264 	0.0137259 	-1.24585e-18
1.4375 	-0.984375 	0.5 	39.9248 	0.011597 	-8.60254e-19
1.45312 	-0.984375 	0.5 	39.9232 	0.00922802 	1.44686e-19
1.46875 	-0.984375 	0.5 	39.922 	0.00709655 	-1.61961e-19
1.48438 	-0.984375 	0.5 	39.9209 	0.00523961 	-1.84084e-19
-0.5 	-0.96875 	0.5 	39.7981 	-0.0731516 	-1.4832e-18
-0.484375 	-0.96875 	0.5 	39.7991 	-0.0773323 	-1.24031e-18
-0.46875 	-0.96875 	0.5 	39.8006 	-0.0819683 	1.05772e-19
-0.453125 	-0.96875 	0.5 	39.8018 	-0.0860012 	-2.05571e-19
-0.4375 	-0.96875 	0.5 	39.8033 	-0.0902425 	-4.62837e-19
-0.421875 	-0.96875 	0.5 	39.8044 	-0.0949898 	-5.80121e-20
-0.40625 	-0.96875 	0.5 	39.8064 	-0.099507 	-1.09267e-18
-0.390625 	-0.96875 	0.5 	39.8084 	-0.10382 	-9.89369e-19
-0.375 	-0.96875 	0.5 	39.8101 	-0.108108 	-2.40233e-19
-0.359375 	-0.96875 	0.5 	39.8118 	-0.112154 	4.72954e-19
-0.34375 	-0.96875 	0.5 	39.8135 	-0.115439 	3.95478e-19
-0.328125 	-0.96875 	0.5 	39.8159 	-0.119646 	-5.20152e-19
-0.3125 	-0.96875 	0.5 	39.8186 	-0.123717 	-7.81005e-19
-0.296875 	-0.96875 	0.5 	39.822 	-0.127893 	-1.67778e-19
-0.28125 	-0.96875 	0.5 	39.8253 	-0.131809 	1.63688e-19
-0.265625 	-0.96875 	0.5 	39.8287 	-0.135958 	-1.43993e-19
-0.25 	-0.96875 	0.5 	39.8319 	-0.139674 	1.10927e-19
-0.234375 	-0.96875 	0.5 	39.8355 	-0.142922 	-6.30506e-19
-0.21875 	-0.96875 	0.5 	39.8392 	-0.146831 	-6.00066e-19
-0.203125 	-0.96875 	0.5 	39.8435 	-0.150659 	-1.83913e-20
-0.1875 	-0.96875 	0.5 	39.8476 	-0.153823 	-2.52897e-20
-0.171875 	-0.96875 	0.5 	39.8516 	-0.156748 	2.0515e-19
-0.15625 	-0.96875 	0.5 	39.8563 	-0.160197 	6.20318e-20
-0.140625 	-0.96875 	0.5 	39.8609 	-0.163756 	-7.56042e-20
-0.125 	-0.96875 	0.5 	39.8655 	-0.166306 	2.37553e-19
-0.109375 	-0.96875 	0.5 	39.8701 	-0.168771 	4.56934e-19
-0.09375 	-0.96875 	0.5 	39.8752 	-0.171693 	2.86219e-19
-0.078125 	-0.96875 	0.5 	39.8807 	-0.173437 	-1.73042e-19
-0.0625 	-0.96875 	0.5 	39.8855 	-0.175273 	-4.50574e-19
-0.046875 	-0.96875 	0.5 	39.8907 	-0.176833 	5.03626e-19
-0.03125 	-0.96875 	0.5 	39.8959 	-0.178523 	9.50457e-19
-0.015625 	-0.96875 	0.5 	39.9013 	-0.180566 	1.14701e-18
0 	-0.96875 	0.5 	39.9067 	-0.181385 	3.78202e-19
0.015625 	-0.96875 	0.5 	39.9119 	-0.182245 	-3.0984e-19
0.03125 	-0.96875 	0.5 	39.9174 	-0.182947 	-1.9175e-19
0.046875 	-0.96875 	0.5 	39.9231 	-0.183331 	-1.49531e-19
0.0625 	-0.96875 	0.5 	39.9292 	-0.184288 	1.53331e-20
0.078125 	-0.96875 	0.5 	39.9365 	-0.184009 	7.3206e-21
0.09375 	-0.96875 	0.5 	39.9416 	-0.183965 	6.07947e-20
0.109375 	-0.96875 	0.5 	39.9481 	-0.182793 	1.98475e-19
0.125 	-0.96875 	0.5 	39.9539 	-0.181686 	2.54945e-19
0.140625 	-0.96875 	0.5 	39.9601 	-0.180832 	-3.43794e-19
0.15625 	-0.96875 	0.5 	39.9656 	-0.179849 	-4.27791e-19
0.171875 	-0.96875 	0.5 	39.9711 	-0.178119 	8.13765e-20
0.1875 	-0.96875 	0.5 	39.9767 	-0.176529 	9.9952e-20
0.203125 	-0.96875 	0.5 	39.9826 	-0.174912 	4.79003e-21
0.21875 	-0.96875 	0.5 	39.988 	-0.172816 	1.49814e-19
0.234375 	-0.96875 	0.5 	39.9931 	-0.170302 	4.45587e-19
0.25 	-0.96875 	0.5 	39.9983 	-0.167192 	2.75576e-19
0.265625 	-0.96875 	0.5 	40.0031 	-0.163973 	4.63331e-19
0.28125 	-0.96875 	0.5 	40.0079 	-0.160657 	3.91267e-19
0.296875 	-0.96875 	0.5 	40.0135 	-0.157713 	3.96598e-19
0.3125 	-0.96875 	0.5 	40.0184 	-0.153995 	3.28299e-19
0.328125 	-0.96875 	0.5 	40.0232 	-0.150614 	-1.95533e-19
0.34375 	-0.96875 	0.5 	40.0279 	-0.146954 	-8.57401e-20
0.359375 	-0.96875 	0.5 	40.0316 	-0.142677 	-5.03224e-19
0.375 	-0.96875 	0.5 	40.0358 	-0.138918 	-2.80707e-19
0.390625 	-0.96875 	0.5 	40.0396 	-0.134369 	-1.83343e-19
0.40625 	-0.96875 	0.5 	40.0429 	-0.129061 	-1.13875e-19
0.421875 	-0.96875 	0.5 	40.0461 	-0.123839 	-9.31045e-21
0.4375 	-0.96875 	0.5 	40.049 	-0.118904 	1.9356e-19
0.453125 	-0.96875 	0.5 	40.0519 	-0.113816 	1.04956e-19
0.46875 	-0.96875 	0.5 	40.0543 	-0.109202 	-1.35068e-19
0.484375 	-0.96875 	0.5 	40.0565 	-0.103762 	-4.05558e-19
0.5 	-0.96875 	0.5 	40.0591 	-0.0986894 	1.81571e-19
0.515625 	-0.96875 	0.5 	40.0615 	-0.0935795 	4.87265e-19
0.53125 	-0.96875 	0.5 	40.0629 	-0.087921 	4.60718e-20
0.546875 	-0.96875 	0.5 	40.0638 	-0.0818176 	3.24124e-19
0.5625 	-0.96875 	0.5 	40.065 	-0.0778657 	-2.59462e-19
0.578125 	-0.96875 	0.5 	40.0656 	-0.0719635 	1.02355e-19
0.59375 	-0.96875 	0.5 	40.0659 	-0.0660539 	2.52001e-19
0.609375 	-0.96875 	0.5 	40.0661 	-0.0606234 	-1.95725e-20
0.625 	-0.96875 	0.5 	40.0659 	-0.0551268 	-3.70886e-19
0.640625 	-0.96875 	0.5 	40.0656 	-0.0497679 	1.76763e-20
0.65625 	-0.96875 	0.5 	40.0651 	-0.0446165 	-4.21084e-20
0.671875 	-0.96875 	0.5 	40.0644 	-0.0394431 	-4.34605e-20
0.6875 	-0.96875 	0.5 	40.0632 	-0.0344523 	-4.7874e-21
0.703125 	-0.96875 	0.5 	40.0619 	-0.0292054 	1.13134e-19
0.71875 	-0.96875 	0.5 	40.06 	-0.0243492 	-1.05879e-20
0.734375 	-0.96875 	0.5 	40.0585 	-0.019695 	2.26905e-20
0.75 	-0.96875 	0.5 	40.0563 	-0.0150218 	-3.57236e-20
0.765625 	-0.96875 	0.5 	40.054 	-0.0103684 	-6.60973e-20
0.78125 	-0.96875 	0.5 	40.0519 	-0.00648374 	3.15242e-19
0.796875 	-0.96875 	0.5 	40.0492 	-0.00260684 	2.18666e-19
0.8125 	-0.96875 	0.5 	40.0467 	0.00189337 	4.4583e-21
0.828125 	-0.96875 	0.5 	40.0432 	0.00520414 	-4.50398e-20
0.84375 	-0.96875 	0.5 	40.0405 	0.00899796 	-2.33317e-19
0.859375 	-0.96875 	0.5 	40.0375 	0.0121744 	-1.81123e-19
0.875 	-0.96875 	0.5 	40.0346 	0.0151003 	-5.00024e-20
0.890625 	-0.96875 	0.5 	40.0312 	0.0180704 	1.01816e-20
0.90625 	-0.96875 	0.5 	40.0276 	0.0211892 	-7.96736e-20
0.921875 	-0.96875 	0.5 	40.0245 	0.0230635 	-6.93403e-19
0.9375 	-0.96875 	0.5 	40.0207 	0.0260494 	-4.1037e-19
0.953125 	-0.96875 	0.5 	40.0168 	0.0283398 	-2.38828e-19
0.96875 	-0.96875 	0.5 	40.0131 	0.0305024 	-1.35163e-19
0.984375 	-0.96875 	0.5 	40.0095 	0.0324319 	-2.37222e-22
1 	-0.96875 	0.5 	40.006 	0.033993 	1.11726e-19
1.01562 	-0.96875 	0.5 	40.0021 	0.0354068 	4.47593e-19
1.03125 	-0.96875 	0.5 	39.9985 	0.0360286 	-6.37235e-20
1.04688 	-0.96875 	0.5 	39.9946 	0.0363099 	-2.79995e-19
1.0625 	-0.96875 	0.5 	39.9905 	0.0377344 	-2.9324e-20
1.07812 	-0.96875 	0.5 	39.9863 	0.0382024 	1.13872e-19
1.09375 	-0.96875 	0.5 	39.9829 	0.0380225 	4.51704e-19
1.10938 	-0.96875 	0.5 	39.979 	0.0387968 	4.74118e-19
1.125 	-0.96875 	0.5 	39.9755 	0.0389909 	6.75744e-19
1.14062 	-0.96875 	0.5 	39.972 	0.0390718 	1.81306e-18
1.15625 	-0.96875 	0.5 	39.9686 	0.0384325 	1.8413e-18
1.17188 	-0.96875 	0.5 	39.9652 	0.037791 	-4.18281e-19
1.1875 	-0.96875 	0.5 	39.9621 	0.037128 	3.4551e-19
1.20312 	-0.96875 	0.5 	39.9592 	0.0360298 	1.03447e-20
1.21875 	-0.96875 	0.5 	39.9556 	0.0350616 	-7.64157e-19
1.23438 	-0.96875 	0.5 	39.9525 	0.0343438 	-2.94976e-21
1.25 	-0.96875 	0.5 	39.9495 	0.0329661 	2.65048e-21
1.26562 	-0.96875 	0.5 	39.9468 	0.0322488 	5.18319e-19
1.28125 	-0.96875 	0.5 	39.9441 	0.0308892 	-2.82846e-20
1.29688 	-0.96875 	0.5 	39.9414 	0.0293513 	-5.57132e-19
1.3125 	-0.96875 	0.5 	39.9388 	0.027711 	-5.54128e-19
1.32812 	-0.96875 	0.5 	39.9365 	0.0262685 	-4.76945e-19
1.34375 	-0.96875 	0.5 	39.9341 	0.0244872 	-4.29222e-20
1.35938 	-0.96875 	0.5 	39.932 	0.0225692 	1.63327e-19
1.375 	-0.96875 	0.5 	39.9299 	0.0206928 	9.31027e-19
1.39062 	-0.96875 	0.5 	39.928 	0.018914 	3.92111e-19
1.40625 	-0.96875 	0.5 	39.9261 	0.0168035 	2.98657e-19
1.42188 	-0.96875 	0.5 	39.9243 	0.0152595 	-7.67664e-19
1.4375 	-0.96875 	0.5 	39.9228 	0.0130175 	5.20639e-20
1.45312 	-0.96875 	0.5 	39.9212 	0.0108016 	4.43023e-19
1.46875 	-0.96875 	0.5 	39.9199 	0.00829054 	-2.96387e-19
1.48438 	-0.96875 	0.5 	39.9187 	0.00655008 	-1.97813e-19
-0.5 	-0.953125 	0.5 	39.7934 	-0.0745229 	7.49757e-19
-0.484375 	-0.953125 	0.5 	39.7944 	-0.0786238 	5.29828e-19
-0.46875 	-0.953125 	0.5 	39.7955 	-0.0829545 	-5.88774e-20
-0.453125 	-0.953125 	0.5 	39.7972 	-0.0872753 	-2.87966e-19
-0.4375 	-0.953125 	0.5 	39.7981 	-0.0919383 	1.97248e-19
-0.421875 	-0.953125 	0.5 	39.8005 	-0.0978545 	1.90702e-18
-0.40625 	-0.953125 	0.5 	39.8012 	-0.101023 	-6.85049e-19
-0.390625 	-0.953125 	0.5 	39.8031 	-0.105412 	-8.75802e-19
-0.375 	-0.953125 	0.5 	39.8049 	-0.109533 	-2.04123e-19
-0.359375 	-0.953125 	0.5 	39.807 	-0.114186 	3.64429e-19
-0.34375 	-0.953125 	0.5 	39.8091 	-0.118181 	8.04899e-19
-0.328125 	-0.953125 	0.5 	39.8118 	-0.12267 	2.4263e-19
-0.3125 	-0.953125 	0.5 	39.8144 	-0.126707 	-2.57765e-19
-0.296875 	-0.953125 	0.5 	39.8176 	-0.130618 	-2.42632e-19
-0.28125 	-0.953125 	0.5 	39.8213 	-0.134669 	2.36863e-19
-0.265625 	-0.953125 	0.5 	39.8246 	-0.13873 	1.47058e-19
-0.25 	-0.953125 	0.5 	39.8278 	-0.143404 	-1.37168e-19
-0.234375 	-0.953125 	0.5 	39.8319 	-0.147375 	-1.56068e-19
-0.21875 	-0.953125 	0.5 	39.8354 	-0.150967 	-6.40908e-19
-0.203125 	-0.953125 	0.5 	39.8397 	-0.154701 	-1.32867e-19
-0.1875 	-0.953125 	0.5 	39.8438 	-0.157988 	1.14204e-20
-0.171875 	-0.953125 	0.5 	39.8482 	-0.161454 	-5.8216e-20
-0.15625 	-0.953125 	0.5 	39.8528 	-0.165404 	-5.16284e-19
-0.140625 	-0.953125 	0.5 	39.8574 	-0.168419 	-1.84542e-19
-0.125 	-0.953125 	0.5 	39.8622 	-0.170731 	-4.60124e-19
-0.109375 	-0.953125 	0.5 	39.867 	-0.17331 	-1.68006e-19
-0.09375 	-0.953125 	0.5 	39.8721 	-0.17594 	-1.0253e-19
-0.078125 	-0.953125 	0.5 	39.8778 	-0.178132 	-2.73303e-19
-0.0625 	-0.953125 	0.5 	39.8834 	-0.18072 	9.20495e-20
-0.046875 	-0.953125 	0.5 	39.8885 	-0.18242 	4.01999e-19
-0.03125 	-0.953125 	0.5 	39.8936 	-0.184055 	8.67079e-19
-0.015625 	-0.953125 	0.5 	39.8989 	-0.185693 	8.42727e-19
0 	-0.953125 	0.5 	39.9049 	-0.186648 	8.42066e-19
0.015625 	-0.953125 	0.5 	39.9111 	-0.187818 	-5.51219e-19
0.03125 	-0.953125 	0.5 	39.9173 	-0.187804 	-4.68222e-19
0.046875 	-0.953125 	0.5 	39.9232 	-0.189203 	-2.77643e-19
0.0625 	-0.953125 	0.5 	39.9295 	-0.190294 	7.0261e-19
0.078125 	-0.953125 	0.5 	39.9365 	-0.190211 	2.11084e-20
0.09375 	-0.953125 	0.5 	39.9423 	-0.189659 	-2.12816e-19
0.109375 	-0.953125 	0.5 	39.9491 	-0.188645 	-2.37335e-19
0.125 	-0.953125 	0.5 	39.9552 	-0.187697 	-1.78184e-19
0.140625 	-0.953125 	0.5 	39.961 	-0.186451 	-4.61681e-19
0.15625 	-0.953125 	0.5 	39.9667 	-0.185735 	-2.78154e-19
0.171875 	-0.953125 	0.5 	39.9724 	-0.18482 	-2.97054e-19
0.1875 	-0.953125 	0.5 	39.979 	-0.182445 	3.53992e-19
0.203125 	-0.953125 	0.5 	39.9849 	-0.180365 	8.78739e-22
0.21875 	-0.953125 	0.5 	39.9908 	-0.178201 	-6.25758e-20
0.234375 	-0.953125 	0.5 	39.9951 	-0.174784 	7.33106e-20
0.25 	-0.953125 	0.5 	40.0007 	-0.172299 	2.88748e-19
0.265625 	-0.953125 	0.5 	40.0061 	-0.169014 	3.22438e-19
0.28125 	-0.953125 	0.5 	40.012 	-0.166048 	4.53541e-19
0.296875 	-0.953125 	0.5 	40.0175 	-0.162692 	2.78151e-19
0.3125 	-0.953125 	0.5 	40.0223 	-0.159184 	5.52349e-19
0.328125 	-0.953125 	0.5 	40.0272 	-0.155113 	2.89093e-19
0.34375 	-0.953125 	0.5 	40.032 	-0.150932 	3.5789e-20
0.359375 	-0.953125 	0.5 	40.0365 	-0.146596 	-2.05349e-19
0.375 	-0.953125 	0.5 	40.0405 	-0.142534 	-2.39571e-19
0.390625 	-0.953125 	0.5 	40.0443 	-0.137886 	1.27901e-19
0.40625 	-0.953125 	0.5 	40.0476 	-0.132329 	-1.73728e-19
0.421875 	-0.953125 	0.5 	40.051 	-0.127144 	8.90851e-20
0.4375 	-0.953125 	0.5 	40.0543 	-0.121115 	-2.89533e-19
0.453125 	-0.953125 	0.5 	40.0566 	-0.11687 	-1.24252e-19
0.46875 	-0.953125 	0.5 	40.0592 	-0.110719 	6.10339e-19
0.484375 	-0.953125 	0.5 	40.0617 	-0.105693 	-4.91564e-19
0.5 	-0.953125 	0.5 	40.0642 	-0.100374 	-3.19926e-19
0.515625 	-0.953125 	0.5 	40.0663 	-0.0950332 	-3.74823e-22
0.53125 	-0.953125 	0.5 	40.0679 	-0.0899698 	-2.19745e-19
0.546875 	-0.953125 	0.5 	40.0693 	-0.08429 	-7.11575e-19
0.5625 	-0.953125 	0.5 	40.0701 	-0.078361 	-5.06314e-19
0.578125 	-0.953125 	0.5 	40.0708 	-0.0727237 	-2.75844e-19
0.59375 	-0.953125 	0.5 	40.0712 	-0.066574 	9.42903e-20
0.609375 	-0.953125 	0.5 	40.0713 	-0.0604963 	7.76864e-20
0.625 	-0.953125 	0.5 	40.0709 	-0.0545768 	-1.51455e-19
0.640625 	-0.953125 	0.5 	40.0705 	-0.0492451 	-1.05546e-19
0.65625 	-0.953125 	0.5 	40.0704 	-0.0436914 	1.22042e-19
0.671875 	-0.953125 	0.5 	40.0692 	-0.0384163 	-4.24241e-19
0.6875 	-0.953125 	0.5 	40.0681 	-0.0325732 	-8.72303e-20
0.703125 	-0.953125 	0.5 	40.0666 	-0.0276187 	5.61942e-20
0.71875 	-0.953125 	0.5 	40.0648 	-0.0227369 	-4.88519e-20
0.734375 	-0.953125 	0.5 	40.0629 	-0.0178209 	-4.9318e-21
0.75 	-0.953125 	0.5 	40.0611 	-0.0128623 	1.46255e-24
0.765625 	-0.953125 	0.5 	40.0586 	-0.00821286 	-1.50378e-19
0.78125 	-0.953125 	0.5 	40.0553 	-0.00406112 	2.29798e-19
0.796875 	-0.953125 	0.5 	40.0527 	-4.81e-05 	1.42392e-19
0.8125 	-0.953125 	0.5 	40.0503 	0.00462379 	6.59865e-20
0.828125 	-0.953125 	0.5 	40.0476 	0.0087062 	2.49009e-20
0.84375 	-0.953125 	0.5 	40.044 	0.0132965 	7.67706e-19
0.859375 	-0.953125 	0.5 	40.0408 	0.0154207 	5.42873e-22
0.875 	-0.953125 	0.5 	40.0379 	0.0183618 	9.55873e-20
0.890625 	-0.953125 	0.5 	40.0333 	0.021583 	1.45045e-19
0.90625 	-0.953125 	0.5 	40.0295 	0.0238441 	-6.94575e-21
0.921875 	-0.953125 	0.5 	40.0266 	0.0277839 	-1.36445e-19
0.9375 	-0.953125 	0.5 	40.0228 	0.029925 	2.61452e-19
0.953125 	-0.953125 	0.5 	40.0183 	0.0320085 	-1.69633e-19
0.96875 	-0.953125 	0.5 	40.0148 	0.0339696 	4.56945e-21
0.984375 	-0.953125 	0.5 	40.0111 	0.0363072 	2.0559e-20
1 	-0.953125 	0.5 	40.0068 	0.0380408 	-1.48407e-19
1.01562 	-0.953125 	0.5 	40.0026 	0.0392083 	1.98892e-19
1.03125 	-0.953125 	0.5 	39.9989 	0.0398258 	-2.24735e-19
1.04688 	-0.953125 	0.5 	39.9948 	0.0407593 	-6.85238e-20
1.0625 	-0.953125 	0.5 	39.9903 	0.0413927 	1.76427e-19
1.07812 	-0.953125 	0.5 	39.9864 	0.0416685 	1.9295e-19
1.09375 	-0.953125 	0.5 	39.9825 	0.0422895 	2.05945e-19
1.10938 	-0.953125 	0.5 	39.9789 	0.0424708 	4.25609e-19
1.125 	-0.953125 	0.5 	39.9749 	0.0429265 	3.6936e-19
1.14062 	-0.953125 	0.5 	39.9715 	0.0415784 	3.5374e-19
1.15625 	-0.953125 	0.5 	39.9683 	0.0404257 	7.61825e-20
1.17188 	-0.953125 	0.5 	39.9649 	0.0403269 	-4.34559e-20
1.1875 	-0.953125 	0.5 	39.9614 	0.0400691 	-1.60059e-19
1.20312 	-0.953125 	0.5 	39.9577 	0.0391776 	-8.23092e-19
1.21875 	-0.953125 	0.5 	39.9542 	0.0384476 	-9.91989e-19
1.23438 	-0.953125 	0.5 	39.9514 	0.0375926 	2.57919e-20
1.25 	-0.953125 	0.5 	39.9485 	0.036021 	2.49288e-19
1.26562 	-0.953125 	0.5 	39.9452 	0.0347587 	4.10072e-20
1.28125 	-0.953125 	0.5 	39.9425 	0.0335195 	-2.34808e-19
1.29688 	-0.953125 	0.5 	39.9398 	0.0318503 	-3.24316e-19
1.3125 	-0.953125 	0.5 	39.9371 	0.0301812 	-4.13824e-19
1.32812 	-0.953125 	0.5 	39.9346 	0.0284685 	-2.45344e-19
1.34375 	-0.953125 	0.5 	39.9324 	0.0265901 	-2.47807e-20
1.35938 	-0.953125 	0.5 	39.9301 	0.0247117 	1.95782e-19
1.375 	-0.953125 	0.5 	39.928 	0.0228171 	3.81251e-19
1.39062 	-0.953125 	0.5 	39.9261 	0.0207568 	2.34526e-19
1.40625 	-0.953125 	0.5 	39.9242 	0.0187202 	6.26196e-20
1.42188 	-0.953125 	0.5 	39.9223 	0.0167931 	-2.89479e-19
1.4375 	-0.953125 	0.5 	39.9208 	0.0145634 	1.20333e-19
1.45312 	-0.953125 	0.5 	39.9192 	0.0123162 	2.50013e-19
1.46875 	-0.953125 	0.5 	39.9177 	0.0100553 	1.60713e-19
1.48438 	-0.953125 	0.5 	39.9164 	0.00790096 	7.78424e-19
-0.5 	-0.9375 	0.5 	39.7883 	-0.0756092 	7.49986e-19
-0.484375 	-0.9375 	0.5 	39.7893 	-0.0797105 	2.31182e-19
-0.46875 	-0.9375 	0.5 	39.7905 	-0.0840785 	4.66359e-20
-0.453125 	-0.9375 	0.5 	39.7918 	-0.0888468 	3.56937e-19
-0.4375 	-0.9375 	0.5 	39.7934 	-0.0938769 	1.01453e-18
-0.421875 	-0.9375 	0.5 	39.7951 	-0.0986527 	1.22232e-18
-0.40625 	-0.9375 	0.5 	39.7967 	-0.103312 	1.28048e-18
-0.390625 	-0.9375 	0.5 	39.7978 	-0.106892 	-3.29522e-19
-0.375 	-0.9375 	0.5 	39.7998 	-0.111142 	1.1774e-19
-0.359375 	-0.9375 	0.5 	39.8021 	-0.115883 	2.76596e-20
-0.34375 	-0.9375 	0.5 	39.8046 	-0.120383 	3.93818e-19
-0.328125 	-0.9375 	0.5 	39.8074 	-0.125266 	2.74416e-19
-0.3125 	-0.9375 	0.5 	39.8102 	-0.129581 	-1.58022e-20
-0.296875 	-0.9375 	0.5 	39.8136 	-0.13358 	-1.55865e-19
-0.28125 	-0.9375 	0.5 	39.8173 	-0.13777 	-5.41436e-20
-0.265625 	-0.9375 	0.5 	39.8204 	-0.142327 	-7.43769e-21
-0.25 	-0.9375 	0.5 	39.8233 	-0.147472 	-3.3883e-20
-0.234375 	-0.9375 	0.5 	39.8276 	-0.151344 	-8.91303e-20
-0.21875 	-0.9375 	0.5 	39.8314 	-0.155598 	-2.96222e-19
-0.203125 	-0.9375 	0.5 	39.8356 	-0.159136 	1.46792e-19
-0.1875 	-0.9375 	0.5 	39.8397 	-0.162537 	2.03999e-19
-0.171875 	-0.9375 	0.5 	39.8442 	-0.166523 	-4.55635e-19
-0.15625 	-0.9375 	0.5 	39.8493 	-0.169623 	-2.44185e-19
-0.140625 	-0.9375 	0.5 	39.8539 	-0.173082 	-2.93479e-19
-0.125 	-0.9375 	0.5 	39.8588 	-0.175487 	-3.76581e-19
-0.109375 	-0.9375 	0.5 	39.864 	-0.179437 	-3.52688e-19
-0.09375 	-0.9375 	0.5 	39.8696 	-0.180548 	-8.38915e-19