-0.5 	-1 	0.5 	39.2623 	0.377924 	-4.56572e-19
-0.484375 	-1 	0.5 	39.2556 	0.373243 	-4.11286e-19
-0.46875 	-1 	0.5 	39.2486 	0.369089 	-2.11814e-19
-0.453125 	-1 	0.5 	39.242 	0.364212 	1.09589e-19
-0.4375 	-1 	0.5 	39.2364 	0.358326 	7.47135e-19
-0.421875 	-1 	0.5 	39.2308 	0.352073 	9.28115e-19
-0.40625 	-1 	0.5 	39.2248 	0.345267 	-3.71818e-21
-0.390625 	-1 	0.5 	39.2182 	0.339769 	-1.1988e-20
-0.375 	-1 	0.5 	39.2123 	0.333177 	-9.69692e-20
-0.359375 	-1 	0.5 	39.2083 	0.326059 	-2.21923e-19
-0.34375 	-1 	0.5 	39.2045 	0.320771 	4.66961e-20
-0.328125 	-1 	0.5 	39.2012 	0.314452 	2.85049e-19
-0.3125 	-1 	0.5 	39.1966 	0.30864 	6.69026e-20
-0.296875 	-1 	0.5 	39.189 	0.302245 	-9.11094e-21
-0.28125 	-1 	0.5 	39.1835 	0.294481 	-1.50709e-19
-0.265625 	-1 	0.5 	39.1787 	0.288383 	-3.38832e-21
-0.25 	-1 	0.5 	39.1749 	0.280557 	2.45813e-19
-0.234375 	-1 	0.5 	39.1706 	0.273199 	2.64308e-19
-0.21875 	-1 	0.5 	39.1667 	0.266667 	-8.4193e-21
-0.203125 	-1 	0.5 	39.1628 	0.258633 	-2.36882e-19
-0.1875 	-1 	0.5 	39.159 	0.251344 	-6.11546e-19
-0.171875 	-1 	0.5 	39.1552 	0.24489 	-2.97029e-19
-0.15625 	-1 	0.5 	39.1514 	0.238234 	4.41312e-20
-0.140625 	-1 	0.5 	39.1473 	0.230518 	4.05109e-19
-0.125 	-1 	0.5 	39.1438 	0.223317 	2.03519e-19
-0.109375 	-1 	0.5 	39.1394 	0.214825 	6.35492e-20
-0.09375 	-1 	0.5 	39.1377 	0.207768 	-6.6554e-19
-0.078125 	-1 	0.5 	39.1352 	0.198282 	-1.53919e-19
-0.0625 	-1 	0.5 	39.1324 	0.190462 	-7.21389e-21
-0.046875 	-1 	0.5 	39.1294 	0.184379 	1.14486e-19
-0.03125 	-1 	0.5 	39.1261 	0.177472 	2.106e-19
-0.015625 	-1 	0.5 	39.1244 	0.170384 	7.68759e-19
0 	-1 	0.5 	39.1218 	0.163281 	6.62895e-19
0.015625 	-1 	0.5 	39.119 	0.15448 	-6.92431e-19
0.03125 	-1 	0.5 	39.1163 	0.146931 	-1.72788e-20
0.046875 	-1 	0.5 	39.1136 	0.139397 	1.63059e-19
0.0625 	-1 	0.5 	39.1116 	0.131808 	1.65375e-19
0.078125 	-1 	0.5 	39.1093 	0.124246 	-3.96134e-20
0.09375 	-1 	0.5 	39.108 	0.117918 	-3.12797e-21
0.109375 	-1 	0.5 	39.1069 	0.107579 	-1.24205e-19
0.125 	-1 	0.5 	39.1059 	0.100663 	-3.25419e-19
0.140625 	-1 	0.5 	39.1043 	0.0934117 	-1.01803e-21
0.15625 	-1 	0.5 	39.103 	0.0848985 	6.0268e-20
0.171875 	-1 	0.5 	39.1013 	0.0773945 	1.4591e-19
0.1875 	-1 	0.5 	39.1002 	0.0700297 	8.74788e-19
0.203125 	-1 	0.5 	39.0996 	0.0626578 	9.07689e-19
0.21875 	-1 	0.5 	39.0987 	0.0556106 	-2.52134e-19
0.234375 	-1 	0.5 	39.0974 	0.0468732 	-6.96054e-20
0.25 	-1 	0.5 	39.0959 	0.0391145 	-1.35838e-19
0.265625 	-1 	0.5 	39.0945 	0.0321364 	2.6115e-19
0.28125 	-1 	0.5 	39.0941 	0.0239937 	-4.80847e-19
0.296875 	-1 	0.5 	39.0928 	0.0161658 	4.91778e-19
0.3125 	-1 	0.5 	39.092 	0.00766965 	4.90852e-19
0.328125 	-1 	0.5 	39.0916 	-0.00122168 	1.29011e-19
0.34375 	-1 	0.5 	39.0916 	-0.00831606 	-6.27427e-19
0.359375 	-1 	0.5 	39.0918 	-0.0154704 	-8.41643e-19
0.375 	-1 	0.5 	39.0911 	-0.0237911 	-5.36121e-19
0.390625 	-1 	0.5 	39.0919 	-0.0316537 	1.06614e-19
0.40625 	-1 	0.5 	39.0925 	-0.0398752 	3.69391e-19
0.421875 	-1 	0.5 	39.0925 	-0.0483733 	1.44278e-19
0.4375 	-1 	0.5 	39.0924 	-0.0565212 	2.43609e-19
0.453125 	-1 	0.5 	39.0925 	-0.0644114 	-5.01215e-19
0.46875 	-1 	0.5 	39.0928 	-0.0728486 	-6.40752e-21
0.484375 	-1 	0.5 	39.0929 	-0.080198 	-1.11251e-19
0.5 	-1 	0.5 	39.0937 	-0.0891121 	1.70171e-19
0.515625 	-1 	0.5 	39.0926 	-0.0974159 	-1.55799e-20
0.53125 	-1 	0.5 	39.0957 	-0.105458 	1.43691e-19
0.546875 	-1 	0.5 	39.0977 	-0.113738 	4.30258e-19
0.5625 	-1 	0.5 	39.0989 	-0.121511 	-4.63888e-19
0.578125 	-1 	0.5 	39.0992 	-0.132633 	-3.09881e-19
0.59375 	-1 	0.5 	39.1012 	-0.140874 	-8.94936e-20
0.609375 	-1 	0.5 	39.1031 	-0.147792 	9.33935e-20
0.625 	-1 	0.5 	39.104 	-0.155733 	7.84e-19
0.640625 	-1 	0.5 	39.1061 	-0.165141 	4.59671e-19
0.65625 	-1 	0.5 	39.1082 	-0.172922 	-5.84181e-20
0.671875 	-1 	0.5 	39.1104 	-0.181371 	-2.73197e-19
0.6875 	-1 	0.5 	39.1128 	-0.189881 	-7.6249e-20
0.703125 	-1 	0.5 	39.1149 	-0.197989 	-2.99022e-20
0.71875 	-1 	0.5 	39.1175 	-0.206283 	-1.02763e-20
0.734375 	-1 	0.5 	39.121 	-0.21495 	-4.61175e-20
0.75 	-1 	0.5 	39.1244 	-0.223617 	-8.19588e-20
0.765625 	-1 	0.5 	39.1273 	-0.231546 	-9.05036e-20
0.78125 	-1 	0.5 	39.1307 	-0.239577 	-5.3478e-20
0.796875 	-1 	0.5 	39.134 	-0.24869 	-8.15476e-20
0.8125 	-1 	0.5 	39.1388 	-0.256849 	-5.846e-20
0.828125 	-1 	0.5 	39.143 	-0.266107 	6.64132e-20
0.84375 	-1 	0.5 	39.1471 	-0.273976 	1.40547e-19
0.859375 	-1 	0.5 	39.1491 	-0.282261 	1.04918e-18
0.875 	-1 	0.5 	39.1527 	-0.28902 	6.85794e-19
0.890625 	-1 	0.5 	39.1584 	-0.29408 	-6.53133e-19
0.90625 	-1 	0.5 	39.1643 	-0.303396 	5.20122e-19
0.921875 	-1 	0.5 	39.1691 	-0.309411 	-1.38168e-18
0.9375 	-1 	0.5 	39.1738 	-0.317756 	-1.03795e-18
0.953125 	-1 	0.5 	39.1766 	-0.327092 	-3.01082e-19
0.96875 	-1 	0.5 	39.1833 	-0.334626 	4.73285e-20
0.984375 	-1 	0.5 	39.1903 	-0.34203 	3.16418e-19
1 	-1 	0.5 	39.1957 	-0.348048 	1.05494e-18
1.01562 	-1 	0.5 	39.201 	-0.354933 	1.44214e-18
1.03125 	-1 	0.5 	39.2084 	-0.362834 	1.51274e-19
1.04688 	-1 	0.5 	39.2133 	-0.371163 	6.30439e-19
1.0625 	-1 	0.5 	39.2215 	-0.376989 	1.01226e-18
1.07812 	-1 	0.5 	39.2271 	-0.382706 	3.99187e-19
1.09375 	-1 	0.5 	39.2328 	-0.388526 	-8.72769e-21
1.10938 	-1 	0.5 	39.2385 	-0.395195 	3.61967e-19
1.125 	-1 	0.5 	39.2443 	-0.401865 	7.32661e-19
1.14062 	-1 	0.5 	39.2505 	-0.408128 	8.4119e-19
1.15625 	-1 	0.5 	39.258 	-0.413217 	5.34578e-19
1.17188 	-1 	0.5 	39.2646 	-0.418588 	1.9201e-19
1.1875 	-1 	0.5 	39.2714 	-0.424278 	1.3863e-20
1.20312 	-1 	0.5 	39.2774 	-0.429804 	4.08761e-20
1.21875 	-1 	0.5 	39.2866 	-0.434326 	1.49856e-21
1.23438 	-1 	0.5 	39.2931 	-0.440887 	-2.8368e-21
1.25 	-1 	0.5 	39.2999 	-0.445028 	6.44352e-19
1.26562 	-1 	0.5 	39.3069 	-0.449307 	-2.69322e-19
1.28125 	-1 	0.5 	39.3145 	-0.453282 	-6.93529e-19
1.29688 	-1 	0.5 	39.322 	-0.458488 	5.16149e-20
1.3125 	-1 	0.5 	39.3295 	-0.462621 	-8.90785e-20
1.32812 	-1 	0.5 	39.337 	-0.467107 	-1.5002e-19
1.34375 	-1 	0.5 	39.3445 	-0.471243 	-1.76715e-19
1.35938 	-1 	0.5 	39.3529 	-0.474784 	-1.11279e-18
1.375 	-1 	0.5 	39.3604 	-0.47782 	-7.40746e-19
1.39062 	-1 	0.5 	39.3678 	-0.480852 	-3.37897e-19
1.40625 	-1 	0.5 	39.3753 	-0.484058 	-2.80993e-19
1.42188 	-1 	0.5 	39.3831 	-0.487329 	-1.18149e-19
1.4375 	-1 	0.5 	39.3908 	-0.490547 	2.18571e-20
1.45312 	-1 	0.5 	39.3987 	-0.493477 	3.78565e-20
1.46875 	-1 	0.5 	39.4062 	-0.495719 	8.08755e-20
1.48438 	-1 	0.5 	39.4134 	-0.497618 	1.31813e-19
-0.5 	-0.984375 	0.5 	39.2549 	0.384823 	-3.96697e-19
-0.484375 	-0.984375 	0.5 	39.2475 	0.381066 	-8.09075e-20
-0.46875 	-0.984375 	0.5 	39.2421 	0.375424 	-1.71543e-20
-0.453125 	-0.984375 	0.5 	39.235 	0.369802 	-1.08949e-20
-0.4375 	-0.984375 	0.5 	39.2289 	0.363603 	-1.58296e-20
-0.421875 	-0.984375 	0.5 	39.2231 	0.357664 	4.41114e-19
-0.40625 	-0.984375 	0.5 	39.2172 	0.351217 	-1.25163e-21
-0.390625 	-0.984375 	0.5 	39.2111 	0.345065 	-6.41306e-20
-0.375 	-0.984375 	0.5 	39.2049 	0.337936 	-6.18726e-20
-0.359375 	-0.984375 	0.5 	39.2007 	0.330139 	-2.69004e-19
-0.34375 	-0.984375 	0.5 	39.1972 	0.324584 	-1.45404e-19
-0.328125 	-0.984375 	0.5 	39.1929 	0.319216 	1.90375e-19
-0.3125 	-0.984375 	0.5 	39.188 	0.311473 	-7.02249e-20
-0.296875 	-0.984375 	0.5 	39.1824 	0.30635 	2.90067e-20
-0.28125 	-0.984375 	0.5 	39.1754 	0.299462 	-5.96815e-20
-0.265625 	-0.984375 	0.5 	39.1709 	0.292344 	-3.61278e-20
-0.25 	-0.984375 	0.5 	39.1664 	0.284793 	3.81791e-19
-0.234375 	-0.984375 	0.5 	39.1622 	0.277487 	1.97673e-19
-0.21875 	-0.984375 	0.5 	39.1579 	0.27018 	1.3555e-20
-0.203125 	-0.984375 	0.5 	39.1535 	0.263142 	1.13027e-19
-0.1875 	-0.984375 	0.5 	39.149 	0.256249 	3.42664e-19
-0.171875 	-0.984375 	0.5 	39.1452 	0.249387 	2.77453e-19
-0.15625 	-0.984375 	0.5 	39.1415 	0.241973 	-2.8645e-19
-0.140625 	-0.984375 	0.5 	39.1386 	0.233507 	3.52864e-19
-0.125 	-0.984375 	0.5 	39.1353 	0.226044 	3.27036e-19
-0.109375 	-0.984375 	0.5 	39.1309 	0.217298 	4.37373e-19
-0.09375 	-0.984375 	0.5 	39.1269 	0.20899 	-2.39802e-19
-0.078125 	-0.984375 	0.5 	39.1243 	0.200496 	5.98865e-21
-0.0625 	-0.984375 	0.5 	39.1215 	0.194248 	4.53523e-20
-0.046875 	-0.984375 	0.5 	39.1192 	0.187213 	-4.1449e-20
-0.03125 	-0.984375 	0.5 	39.117 	0.180318 	-3.16554e-20
-0.015625 	-0.984375 	0.5 	39.1146 	0.172717 	9.8211e-19
0 	-0.984375 	0.5 	39.1123 	0.166314 	2.80755e-19
0.015625 	-0.984375 	0.5 	39.1099 	0.15867 	-2.94878e-20
0.03125 	-0.984375 	0.5 	39.1063 	0.148792 	-1.4609e-19
0.046875 	-0.984375 	0.5 	39.1046 	0.1412 	-5.64256e-20
0.0625 	-0.984375 	0.5 	39.1026 	0.133706 	-1.0194e-19
0.078125 	-0.984375 	0.5 	39.1006 	0.126137 	-9.75034e-20
0.09375 	-0.984375 	0.5 	39.0994 	0.118207 	-3.16321e-19
0.109375 	-0.984375 	0.5 	39.0981 	0.110454 	-4.1095e-19
0.125 	-0.984375 	0.5 	39.0963 	0.103672 	1.77954e-19
0.140625 	-0.984375 	0.5 	39.0946 	0.0952456 	-8.76151e-20
0.15625 	-0.984375 	0.5 	39.093 	0.0872275 	3.43629e-20
0.171875 	-0.984375 	0.5 	39.0919 	0.0791521 	1.47514e-19
0.1875 	-0.984375 	0.5 	39.0909 	0.0703705 	3.14936e-20
0.203125 	-0.984375 	0.5 	39.0903 	0.0631365 	1.70776e-20
0.21875 	-0.984375 	0.5 	39.0898 	0.0566343 	1.85667e-19
0.234375 	-0.984375 	0.5 	39.088 	0.0486934 	-7.21351e-20
0.25 	-0.984375 	0.5 	39.0865 	0.0410774 	-1.06069e-19
0.265625 	-0.984375 	0.5 	39.0853 	0.033325 	-1.59222e-19
0.28125 	-0.984375 	0.5 	39.0847 	0.0250823 	-4.12736e-19
0.296875 	-0.984375 	0.5 	39.0835 	0.0169818 	2.26428e-19
0.3125 	-0.984375 	0.5 	39.0828 	0.00856815 	5.03708e-19
0.328125 	-0.984375 	0.5 	39.082 	-0.000343635 	6.39001e-20
0.34375 	-0.984375 	0.5 	39.0821 	-0.0080156 	-9.8563e-20
0.359375 	-0.984375 	0.5 	39.0823 	-0.0158188 	-2.23468e-19
0.375 	-0.984375 	0.5 	39.0823 	-0.0234948 	-1.70464e-19
0.390625 	-0.984375 	0.5 	39.0821 	-0.0319202 	-3.71754e-20
0.40625 	-0.984375 	0.5 	39.0825 	-0.0403811 	1.52485e-19
0.421875 	-0.984375 	0.5 	39.0826 	-0.0485834 	-4.17091e-19
0.4375 	-0.984375 	0.5 	39.0828 	-0.0568273 	3.20066e-19
0.453125 	-0.984375 	0.5 	39.0829 	-0.0648865 	-1.21646e-18
0.46875 	-0.984375 	0.5 	39.0836 	-0.0737023 	1.64561e-19
0.484375 	-0.984375 	0.5 	39.0847 	-0.0828166 	2.49364e-19
0.5 	-0.984375 	0.5 	39.0844 	-0.0913115 	-5.06297e-20
0.515625 	-0.984375 	0.5 	39.0851 	-0.0995815 	-4.53544e-20
0.53125 	-0.984375 	0.5 	39.0864 	-0.10695 	-3.70596e-20
0.546875 	-0.984375 	0.5 	39.088 	-0.114246 	-1.53065e-20
0.5625 	-0.984375 	0.5 	39.0895 	-0.122401 	-3.51022e-21
0.578125 	-0.984375 	0.5 	39.0905 	-0.133375 	-1.76363e-19
0.59375 	-0.984375 	0.5 	39.0911 	-0.143293 	-6.16833e-19
0.609375 	-0.984375 	0.5 	39.0927 	-0.14966 	1.65042e-20
0.625 	-0.984375 	0.5 	39.0944 	-0.157192 	2.04645e-19
0.640625 	-0.984375 	0.5 	39.0965 	-0.166675 	2.98839e-19
0.65625 	-0.984375 	0.5 	39.0986 	-0.174629 	-1.87485e-19
0.671875 	-0.984375 	0.5 	39.1007 	-0.183306 	-3.28956e-19
0.6875 	-0.984375 	0.5 	39.1035 	-0.192853 	-7.11442e-19
0.703125 	-0.984375 	0.5 	39.1052 	-0.200455 	-2.47357e-19
0.71875 	-0.984375 	0.5 	39.1082 	-0.208884 	3.31016e-19
0.734375 	-0.984375 	0.5 	39.1112 	-0.219612 	6.53467e-20
0.75 	-0.984375 	0.5 	39.1145 	-0.226238 	5.89958e-21
0.765625 	-0.984375 	0.5 	39.1177 	-0.235088 	1.88291e-19
0.78125 	-0.984375 	0.5 	39.1212 	-0.243426 	-1.0997e-18
0.796875 	-0.984375 	0.5 	39.1249 	-0.25276 	-7.39635e-19
0.8125 	-0.984375 	0.5 	39.1284 	-0.261739 	-1.813e-19
0.828125 	-0.984375 	0.5 	39.1322 	-0.269477 	-1.48797e-19
0.84375 	-0.984375 	0.5 	39.1358 	-0.277244 	-7.00154e-20
0.859375 	-0.984375 	0.5 	39.1395 	-0.285224 	2.00701e-19
0.875 	-0.984375 	0.5 	39.1452 	-0.290347 	-8.86802e-19
0.890625 	-0.984375 	0.5 	39.1503 	-0.298911 	-1.03584e-18
0.90625 	-0.984375 	0.5 	39.1562 	-0.309076 	7.1094e-19
0.921875 	-0.984375 	0.5 	39.1624 	-0.315467 	3.27471e-19
0.9375 	-0.984375 	0.5 	39.1668 	-0.322896 	-4.49009e-19
0.953125 	-0.984375 	0.5 	39.1708 	-0.331531 	5.73083e-20
0.96875 	-0.984375 	0.5 	39.176 	-0.339564 	1.01603e-19
0.984375 	-0.984375 	0.5 	39.1841 	-0.348769 	1.76323e-19
1 	-0.984375 	0.5 	39.189 	-0.354921 	-2.36674e-19
1.01562 	-0.984375 	0.5 	39.1935 	-0.362109 	5.06793e-19
1.03125 	-0.984375 	0.5 	39.2001 	-0.368568 	3.90589e-19
1.04688 	-0.984375 	0.5 	39.2056 	-0.375956 	1.76467e-19
1.0625 	-0.984375 	0.5 	39.213 	-0.381752 	2.94313e-19
1.07812 	-0.984375 	0.5 	39.2191 	-0.388759 	-3.20663e-19
1.09375 	-0.984375 	0.5 	39.2245 	-0.395756 	-5.20304e-19
1.10938 	-0.984375 	0.5 	39.2319 	-0.402356 	1.78929e-20
1.125 	-0.984375 	0.5 	39.2367 	-0.409935 	9.76403e-19
1.14062 	-0.984375 	0.5 	39.2442 	-0.414936 	2.69379e-19
1.15625 	-0.984375 	0.5 	39.2512 	-0.420588 	6.3484e-19
1.17188 	-0.984375 	0.5 	39.2577 	-0.425927 	4.22767e-19
1.1875 	-0.984375 	0.5 	39.2643 	-0.431241 	4.788e-20
1.20312 	-0.984375 	0.5 	39.272 	-0.436268 	3.25664e-21
1.21875 	-0.984375 	0.5 	39.2799 	-0.441931 	-8.06261e-20
1.23438 	-0.984375 	0.5 	39.2878 	-0.447594 	-1.64509e-19
1.25 	-0.984375 	0.5 	39.2945 	-0.452905 	-2.56042e-19
1.26562 	-0.984375 	0.5 	39.3021 	-0.456892 	-6.71031e-19
1.28125 	-0.984375 	0.5 	39.3097 	-0.46143 	-6.75568e-19
1.29688 	-0.984375 	0.5 	39.3171 	-0.466826 	-4.1872e-20
1.3125 	-0.984375 	0.5 	39.3247 	-0.470801 	-1.05595e-19
1.32812 	-0.984375 	0.5 	39.3325 	-0.474094 	-1.92207e-20
1.34375 	-0.984375 	0.5 	39.3399 	-0.478616 	-9.77443e-20
1.35938 	-0.984375 	0.5 	39.3479 	-0.482692 	-7.51913e-19
1.375 	-0.984375 	0.5 	39.3555 	-0.485763 	-5.90925e-19
1.39062 	-0.984375 	0.5 	39.3632 	-0.488683 	5.93444e-20
1.40625 	-0.984375 	0.5 	39.3714 	-0.491802 	-1.01478e-19
1.42188 	-0.984375 	0.5 	39.3792 	-0.494602 	4.08984e-20
1.4375 	-0.984375 	0.5 	39.3871 	-0.497647 	2.79569e-19
1.45312 	-0.984375 	0.5 	39.3949 	-0.500862 	4.18292e-19
1.46875 	-0.984375 	0.5 	39.4025 	-0.503333 	4.42188e-19
1.48438 	-0.984375 	0.5 	39.4097 	-0.505237 	4.65467e-19
-0.5 	-0.96875 	0.5 	39.2469 	0.392593 	-2.42417e-20
-0.484375 	-0.96875 	0.5 	39.2417 	0.386651 	-9.83782e-21
-0.46875 	-0.96875 	0.5 	39.2354 	0.381167 	1.03978e-20
-0.453125 	-0.96875 	0.5 	39.2281 	0.375689 	1.93028e-20
-0.4375 	-0.96875 	0.5 	39.2222 	0.369108 	2.49481e-23
-0.421875 	-0.96875 	0.5 	39.2159 	0.363035 	-1.58458e-22
-0.40625 	-0.96875 	0.5 	39.2098 	0.356865 	-8.3072e-21
-0.390625 	-0.96875 	0.5 	39.2034 	0.349461 	6.4884e-20
-0.375 	-0.96875 	0.5 	39.197 	0.342057 	1.38075e-19
-0.359375 	-0.96875 	0.5 	39.1917 	0.335147 	2.63306e-19
-0.34375 	-0.96875 	0.5 	39.1867 	0.328747 	3.6746e-19
-0.328125 	-0.96875 	0.5 	39.1827 	0.323152 	1.91933e-19
-0.3125 	-0.96875 	0.5 	39.1776 	0.314048 	-2.37036e-19
-0.296875 	-0.96875 	0.5 	39.1723 	0.307539 	-2.63273e-19
-0.28125 	-0.96875 	0.5 	39.1673 	0.302616 	-1.34934e-19
-0.265625 	-0.96875 	0.5 	39.1623 	0.29645 	-1.80712e-19
-0.25 	-0.96875 	0.5 	39.1572 	0.28895 	-5.98662e-19
-0.234375 	-0.96875 	0.5 	39.1523 	0.281447 	-7.35784e-19
-0.21875 	-0.96875 	0.5 	39.148 	0.274045 	-6.78869e-20
-0.203125 	-0.96875 	0.5 	39.1442 	0.267233 	5.21391e-20
-0.1875 	-0.96875 	0.5 	39.1396 	0.260416 	2.82841e-19
-0.171875 	-0.96875 	0.5 	39.1359 	0.253561 	1.49006e-19
-0.15625 	-0.96875 	0.5 	39.1317 	0.245949 	-4.29813e-19
-0.140625 	-0.96875 	0.5 	39.1296 	0.237138 	4.93975e-20
-0.125 	-0.96875 	0.5 	39.1254 	0.228607 	8.46549e-20
-0.109375 	-0.96875 	0.5 	39.1206 	0.220021 	-7.29424e-21
-0.09375 	-0.96875 	0.5 	39.1169 	0.21151 	-9.82262e-20
-0.078125 	-0.96875 	0.5 	39.1145 	0.203937 	-1.21191e-19
-0.0625 	-0.96875 	0.5 	39.1121 	0.19692 	-2.44236e-19
-0.046875 	-0.96875 	0.5 	39.11 	0.18976 	-6.02762e-20
-0.03125 	-0.96875 	0.5 	39.1076 	0.183684 	-5.14288e-19
-0.015625 	-0.96875 	0.5 	39.1055 	0.174692 	3.61656e-19
0 	-0.96875 	0.5 	39.1032 	0.168142 	1.73075e-19
0.015625 	-0.96875 	0.5 	39.0995 	0.160102 	4.95757e-20
0.03125 	-0.96875 	0.5 	39.0968 	0.151211 	1.32223e-19
0.046875 	-0.96875 	0.5 	39.0955 	0.143417 	-3.32564e-20
0.0625 	-0.96875 	0.5 	39.0934 	0.135593 	-4.76769e-20
0.078125 	-0.96875 	0.5 	39.0914 	0.12795 	-2.63378e-19
0.09375 	-0.96875 	0.5 	39.0901 	0.120208 	1.59654e-19
0.109375 	-0.96875 	0.5 	39.089 	0.113304 	-2.88771e-19
0.125 	-0.96875 	0.5 	39.0873 	0.106055 	1.15538e-19
0.140625 	-0.96875 	0.5 	39.085 	0.097053 	-3.4571e-19
0.15625 	-0.96875 	0.5 	39.0832 	0.0887702 	-4.76416e-20
0.171875 	-0.96875 	0.5 	39.0824 	0.0811593 	2.7622e-20
0.1875 	-0.96875 	0.5 	39.0809 	0.0722955 	2.22661e-19
0.203125 	-0.96875 	0.5 	39.0804 	0.0644646 	2.33942e-19
0.21875 	-0.96875 	0.5 	39.0789 	0.0568498 	1.30029e-18
0.234375 	-0.96875 	0.5 	39.0773 	0.0489162 	-2.53619e-19
0.25 	-0.96875 	0.5 	39.0766 	0.0419042 	-2.08886e-20
0.265625 	-0.96875 	0.5 	39.0761 	0.0333859 	3.5026e-20
0.28125 	-0.96875 	0.5 	39.0754 	0.0250589 	-1.8181e-20
0.296875 	-0.96875 	0.5 	39.0743 	0.0173549 	-5.97858e-19
0.3125 	-0.96875 	0.5 	39.0732 	0.00903782 	1.27126e-19
0.328125 	-0.96875 	0.5 	39.0724 	0.000479841 	2.10825e-20
0.34375 	-0.96875 	0.5 	39.0725 	-0.00729649 	-9.20483e-20
0.359375 	-0.96875 	0.5 	39.0725 	-0.0153896 	1.9318e-20
0.375 	-0.96875 	0.5 	39.0728 	-0.0236315 	-1.06174e-19
0.390625 	-0.96875 	0.5 	39.0725 	-0.0307343 	1.6531e-19
0.40625 	-0.96875 	0.5 	39.0718 	-0.0402716 	2.53439e-19
0.421875 	-0.96875 	0.5 	39.0723 	-0.0484188 	-7.08642e-19
0.4375 	-0.96875 	0.5 	39.0724 	-0.0564635 	9.65987e-19
0.453125 	-0.96875 	0.5 	39.0729 	-0.0656165 	2.21505e-19
0.46875 	-0.96875 	0.5 	39.0735 	-0.0746762 	-2.32835e-19
0.484375 	-0.96875 	0.5 	39.0743 	-0.0837181 	-3.9679e-19
0.5 	-0.96875 	0.5 	39.0749 	-0.0926887 	-2.10015e-19
0.515625 	-0.96875 	0.5 	39.0749 	-0.1013 	-7.9264e-20
0.53125 	-0.96875 	0.5 	39.0752 	-0.107564 	-1.22792e-20
0.546875 	-0.96875 	0.5 	39.0761 	-0.116086 	3.22004e-20
0.5625 	-0.96875 	0.5 	39.0792 	-0.123254 	-3.41822e-20
0.578125 	-0.96875 	0.5 	39.0818 	-0.13451 	-1.93631e-19
0.59375 	-0.96875 	0.5 	39.0826 	-0.142363 	-6.33743e-20
0.609375 	-0.96875 	0.5 	39.0823 	-0.150408 	6.01183e-20
0.625 	-0.96875 	0.5 	39.0843 	-0.159505 	2.4208e-19
0.640625 	-0.96875 	0.5 	39.0863 	-0.168184 	-4.69005e-19
0.65625 	-0.96875 	0.5 	39.0882 	-0.177149 	-3.48634e-19
0.671875 	-0.96875 	0.5 	39.0906 	-0.186208 	-1.13182e-18
0.6875 	-0.96875 	0.5 	39.0927 	-0.19382 	-2.59996e-19
0.703125 	-0.96875 	0.5 	39.0954 	-0.201947 	2.19222e-19
0.71875 	-0.96875 	0.5 	39.0983 	-0.211518 	2.82678e-19
0.734375 	-0.96875 	0.5 	39.1012 	-0.220828 	2.10639e-19
0.75 	-0.96875 	0.5 	39.1049 	-0.229109 	4.90165e-21
0.765625 	-0.96875 	0.5 	39.109 	-0.237933 	1.1086e-18
0.78125 	-0.96875 	0.5 	39.1105 	-0.247349 	-4.26245e-19
0.796875 	-0.96875 	0.5 	39.1143 	-0.256306 	-7.48246e-20
0.8125 	-0.96875 	0.5 	39.1183 	-0.264544 	1.78173e-20
0.828125 	-0.96875 	0.5 	39.1212 	-0.273189 	8.38749e-21
0.84375 	-0.96875 	0.5 	39.1254 	-0.280852 	1.06885e-21
0.859375 	-0.96875 	0.5 	39.1299 	-0.289307 	-5.70951e-20
0.875 	-0.96875 	0.5 	39.1367 	-0.29664 	-3.47947e-19
0.890625 	-0.96875 	0.5 	39.141 	-0.306281 	-2.5984e-19
0.90625 	-0.96875 	0.5 	39.1446 	-0.31611 	3.97453e-20
0.921875 	-0.96875 	0.5 	39.1521 	-0.321994 	4.3572e-21
0.9375 	-0.96875 	0.5 	39.159 	-0.328122 	-4.52557e-20
0.953125 	-0.96875 	0.5 	39.1622 	-0.336329 	6.99159e-20
0.96875 	-0.96875 	0.5 	39.1651 	-0.344721 	1.8967e-19
0.984375 	-0.96875 	0.5 	39.1765 	-0.35494 	8.52511e-20
1 	-0.96875 	0.5 	39.1802 	-0.360378 	1.02861e-19
1.01562 	-0.96875 	0.5 	39.1851 	-0.368055 	4.04818e-19
1.03125 	-0.96875 	0.5 	39.1909 	-0.376148 	5.25063e-19
1.04688 	-0.96875 	0.5 	39.1986 	-0.380631 	2.62558e-20
1.0625 	-0.96875 	0.5 	39.2052 	-0.388492 	-3.81155e-19
1.07812 	-0.96875 	0.5 	39.2116 	-0.396289 	-7.78839e-19
1.09375 	-0.96875 	0.5 	39.2165 	-0.402689 	-6.9787e-19
1.10938 	-0.96875 	0.5 	39.2228 	-0.409784 	-1.02804e-18
1.125 	-0.96875 	0.5 	39.231 	-0.416059 	-1.27037e-19
1.14062 	-0.96875 	0.5 	39.2376 	-0.422162 	1.95517e-19
1.15625 	-0.96875 	0.5 	39.2441 	-0.42752 	1.32552e-20
1.17188 	-0.96875 	0.5 	39.2512 	-0.432937 	-1.75922e-19
1.1875 	-0.96875 	0.5 	39.2575 	-0.438501 	-3.07228e-20
1.20312 	-0.96875 	0.5 	39.2659 	-0.443808 	-6.00503e-19
1.21875 	-0.96875 	0.5 	39.274 	-0.449308 	-8.55352e-19
1.23438 	-0.96875 	0.5 	39.2816 	-0.455283 	-5.32332e-19
1.25 	-0.96875 	0.5 	39.289 	-0.460946 	-2.50771e-19
1.26562 	-0.96875 	0.5 	39.2968 	-0.465898 	-1.9319e-19
1.28125 	-0.96875 	0.5 	39.3044 	-0.470479 	-1.52854e-19
1.29688 	-0.96875 	0.5 	39.3119 	-0.47452 	-1.1532e-19
1.3125 	-0.96875 	0.5 	39.3196 	-0.47852 	2.26034e-19
1.32812 	-0.96875 	0.5 	39.3274 	-0.482683 	-6.50119e-21
1.34375 	-0.96875 	0.5 	39.3351 	-0.486649 	-1.07284e-19
1.35938 	-0.96875 	0.5 	39.3429 	-0.490584 	-2.91007e-19
1.375 	-0.96875 	0.5 	39.351 	-0.493429 	3.7664e-19
1.39062 	-0.96875 	0.5 	39.3594 	-0.496227 	1.05529e-18
1.40625 	-0.96875 	0.5 	39.3675 	-0.499753 	1.33891e-19
1.42188 	-0.96875 	0.5 	39.375 	-0.502412 	2.13622e-21
1.4375 	-0.96875 	0.5 	39.383 	-0.505273 	2.28006e-19
1.45312 	-0.96875 	0.5 	39.391 	-0.508196 	5.38251e-19
1.46875 	-0.96875 	0.5 	39.399 	-0.511088 	8.77777e-19
1.48438 	-0.96875 	0.5 	39.407 	-0.51388 	1.38313e-18
-0.5 	-0.953125 	0.5 	39.2405 	0.398936 	-1.96587e-20
-0.484375 	-0.953125 	0.5 	39.2336 	0.392978 	2.51559e-20
-0.46875 	-0.953125 	0.5 	39.2282 	0.387126 	4.06933e-20
-0.453125 	-0.953125 	0.5 	39.2211 	0.381575 	4.95005e-20
-0.4375 	-0.953125 	0.5 	39.215 	0.375337 	4.30989e-20
-0.421875 	-0.953125 	0.5 	39.2085 	0.368999 	-2.43613e-19
-0.40625 	-0.953125 	0.5 	39.2026 	0.362228 	-6.21822e-19
-0.390625 	-0.953125 	0.5 	39.1957 	0.356971 	5.16503e-19
-0.375 	-0.953125 	0.5 	39.1895 	0.350121 	9.45505e-19
-0.359375 	-0.953125 	0.5 	39.1832 	0.343941 	7.88361e-20
-0.34375 	-0.953125 	0.5 	39.1781 	0.335908 	6.14781e-20
-0.328125 	-0.953125 	0.5 	39.173 	0.32748 	5.71827e-20
-0.3125 	-0.953125 	0.5 	39.1678 	0.320724 	1.73619e-20
-0.296875 	-0.953125 	0.5 	39.1625 	0.31391 	-1.38047e-20
-0.28125 	-0.953125 	0.5 	39.1587 	0.309334 	-4.74814e-20
-0.265625 	-0.953125 	0.5 	39.1529 	0.301597 	-9.04659e-20
-0.25 	-0.953125 	0.5 	39.1477 	0.293825 	-8.31455e-20
-0.234375 	-0.953125 	0.5 	39.1422 	0.285141 	-2.68159e-19
-0.21875 	-0.953125 	0.5 	39.1382 	0.278088 	-6.20989e-20
-0.203125 	-0.953125 	0.5 	39.1343 	0.271305 	1.33286e-20
-0.1875 	-0.953125 	0.5 	39.1304 	0.264521 	8.87561e-20
-0.171875 	-0.953125 	0.5 	39.1265 	0.257543 	8.94166e-20
-0.15625 	-0.953125 	0.5 	39.1226 	0.249211 	6.65561e-20
-0.140625 	-0.953125 	0.5 	39.119 	0.240965 	3.27402e-20
-0.125 	-0.953125 	0.5 	39.1152 	0.232846 	2.61192e-20
-0.109375 	-0.953125 	0.5 	39.1112 	0.224078 	3.86021e-20
-0.09375 	-0.953125 	0.5 	39.108 	0.215601 	1.20552e-19
-0.078125 	-0.953125 	0.5 	39.1068 	0.209741 	-5.0503e-19
-0.0625 	-0.953125 	0.5 	39.1034 	0.200033 	-1.28897e-19
-0.046875 	-0.953125 	0.5 	39.1008 	0.192307 	-7.91033e-20
-0.03125 	-0.953125 	0.5 	39.0985 	0.18519 	-1.31933e-19
-0.015625 	-0.953125 	0.5 	39.0961 	0.177132 	1.21623e-19
0 	-0.953125 	0.5 	39.0926 	0.169305 	2.15142e-19
0.015625 	-0.953125 	0.5 	39.0893 	0.161112 	9.06909e-20
0.03125 	-0.953125 	0.5 	39.0874 	0.153402 	1.12018e-19
0.046875 	-0.953125 	0.5 	39.0863 	0.145847 	8.16575e-20
0.0625 	-0.953125 	0.5 	39.0844 	0.138151 	-1.91698e-19
0.078125 	-0.953125 	0.5 	39.0821 	0.12957 	-3.52707e-19
0.09375 	-0.953125 	0.5 	39.0808 	0.121078 	5.4399e-19
0.109375 	-0.953125 	0.5 	39.0795 	0.114604 	7.25248e-20
0.125 	-0.953125 	0.5 	39.0776 	0.106517 	-1.21402e-19
0.140625 	-0.953125 	0.5 	39.0764 	0.0986499 	-1.13926e-19
0.15625 	-0.953125 	0.5 	39.0749 	0.0903189 	-1.61967e-19
0.171875 	-0.953125 	0.5 	39.0734 	0.0820045 	1.1411e-20
0.1875 	-0.953125 	0.5 	39.0718 	0.0738839 	1.37338e-19
0.203125 	-0.953125 	0.5 	39.0702 	0.0651853 	1.61628e-19
0.21875 	-0.953125 	0.5 	39.0691 	0.057733 	2.15164e-19
0.234375 	-0.953125 	0.5 	39.0679 	0.0501941 	3.83936e-21
0.25 	-0.953125 	0.5 	39.0672 	0.042083 	1.5075e-19
0.265625 	-0.953125 	0.5 	39.0667 	0.0336285 	1.90301e-19
0.28125 	-0.953125 	0.5 	39.0657 	0.0259559 	3.77238e-20
0.296875 	-0.953125 	0.5 	39.0645 	0.0179548 	-5.38044e-19
0.3125 	-0.953125 	0.5 	39.0636 	0.00950133 	-4.10019e-19
0.328125 	-0.953125 	0.5 	39.0629 	0.00134486 	2.3061e-20
0.34375 	-0.953125 	0.5 	39.0623 	-0.00740052 	2.0115e-19
0.359375 	-0.953125 	0.5 	39.0619 	-0.0157665 	4.33801e-20
0.375 	-0.953125 	0.5 	39.064 	-0.0233826 	-3.09601e-19
0.390625 	-0.953125 	0.5 	39.0632 	-0.0313953 	2.50338e-19
0.40625 	-0.953125 	0.5 	39.0621 	-0.0398137 	5.14967e-19
0.421875 	-0.953125 	0.5 	39.0625 	-0.0482583 	1.25147e-19
0.4375 	-0.953125 	0.5 	39.0624 	-0.0566227 	-3.37488e-20
0.453125 	-0.953125 	0.5 	39.063 	-0.0651295 	-3.20387e-19
0.46875 	-0.953125 	0.5 	39.0633 	-0.0732128 	7.14753e-19
0.484375 	-0.953125 	0.5 	39.0639 	-0.0835083 	-3.51099e-19
0.5 	-0.953125 	0.5 	39.065 	-0.092015 	-6.06869e-19
0.515625 	-0.953125 	0.5 	39.0652 	-0.100986 	-3.26401e-20
0.53125 	-0.953125 	0.5 	39.0649 	-0.109754 	2.26664e-20
0.546875 	-0.953125 	0.5 	39.0644 	-0.11878 	7.12062e-20
0.5625 	-0.953125 	0.5 	39.0671 	-0.127314 	1.83957e-20
0.578125 	-0.953125 	0.5 	39.0702 	-0.135865 	-2.98428e-20
0.59375 	-0.953125 	0.5 	39.0714 	-0.144282 	1.30368e-21
0.609375 	-0.953125 	0.5 	39.073 	-0.153088 	2.38087e-19
0.625 	-0.953125 	0.5 	39.0741 	-0.162392 	5.93721e-19
0.640625 	-0.953125 	0.5 	39.0757 	-0.170972 	5.21613e-20
0.65625 	-0.953125 	0.5 	39.0777 	-0.179917 	-2.64889e-19
0.671875 	-0.953125 	0.5 	39.0801 	-0.188038 	-1.83721e-19
0.6875 	-0.953125 	0.5 	39.083 	-0.19579 	1.05088e-18
0.703125 	-0.953125 	0.5 	39.0857 	-0.204773 	-1.14953e-19
0.71875 	-0.953125 	0.5 	39.0897 	-0.213844 	8.18245e-21
0.734375 	-0.953125 	0.5 	39.0912 	-0.224439 	4.05366e-19
0.75 	-0.953125 	0.5 	39.0945 	-0.232314 	8.28513e-20
0.765625 	-0.953125 	0.5 	39.0978 	-0.24139 	3.93236e-19
0.78125 	-0.953125 	0.5 	39.1002 	-0.250891 	-2.15125e-20
0.796875 	-0.953125 	0.5 	39.1039 	-0.25971 	2.07922e-20
0.8125 	-0.953125 	0.5 	39.1078 	-0.267962 	9.48927e-20
0.828125 	-0.953125 	0.5 	39.1116 	-0.276586 	1.137e-19
0.84375 	-0.953125 	0.5 	39.1175 	-0.283563 	3.14211e-20
0.859375 	-0.953125 	0.5 	39.1208 	-0.29443 	-2.77306e-20
0.875 	-0.953125 	0.5 	39.1267 	-0.302675 	-5.71673e-20
0.890625 	-0.953125 	0.5 	39.131 	-0.311479 	-1.50999e-19
0.90625 	-0.953125 	0.5 	39.1366 	-0.319874 	2.07633e-19
0.921875 	-0.953125 	0.5 	39.1413 	-0.328891 	1.63293e-19
0.9375 	-0.953125 	0.5 	39.1468 	-0.33566 	-3.93637e-22
0.953125 	-0.953125 	0.5 	39.149 	-0.343661 	1.35009e-19
0.96875 	-0.953125 	0.5 	39.1548 	-0.349913 	2.57899e-19
0.984375 	-0.953125 	0.5 	39.1626 	-0.358406 	7.34406e-19
1 	-0.953125 	0.5 	39.1703 	-0.365613 	3.07383e-19
1.01562 	-0.953125 	0.5 	39.1774 	-0.372921 	-9.28904e-20
1.03125 	-0.953125 	0.5 	39.1834 	-0.380441 	-4.01864e-19
1.04688 	-0.953125 	0.5 	39.19 	-0.388003 	8.88801e-20
1.0625 	-0.953125 	0.5 	39.1975 	-0.395973 	-3.22475e-19
1.07812 	-0.953125 	0.5 	39.2033 	-0.402634 	-5.29971e-19
1.09375 	-0.953125 	0.5 	39.2084 	-0.409623 	-8.75437e-19
1.10938 	-0.953125 	0.5 	39.216 	-0.416159 	-3.66412e-19
1.125 	-0.953125 	0.5 	39.2227 	-0.422486 	-1.36574e-20
1.14062 	-0.953125 	0.5 	39.2305 	-0.429493 	-2.91293e-20
1.15625 	-0.953125 	0.5 	39.2382 	-0.434804 	-3.92334e-19
1.17188 	-0.953125 	0.5 	39.2447 	-0.440327 	-3.46464e-19
1.1875 	-0.953125 	0.5 	39.2522 	-0.446235 	7.24011e-19
1.20312 	-0.953125 	0.5 	39.2594 	-0.452009 	-6.10058e-20
1.21875 	-0.953125 	0.5 	39.2682 	-0.456982 	-9.55694e-19
1.23438 	-0.953125 	0.5 	39.2752 	-0.463438 	-1.29861e-19
1.25 	-0.953125 	0.5 	39.283 	-0.468816 	-1.65271e-19
1.26562 	-0.953125 	0.5 	39.2908 	-0.473812 	-2.08159e-19
1.28125 	-0.953125 	0.5 	39.2983 	-0.478284 	-1.72912e-19
1.29688 	-0.953125 	0.5 	39.3066 	-0.480982 	-4.46021e-20
1.3125 	-0.953125 	0.5 	39.3149 	-0.486692 	6.90844e-20
1.32812 	-0.953125 	0.5 	39.3222 	-0.490192 	5.22171e-19
1.34375 	-0.953125 	0.5 	39.3302 	-0.494728 	-9.46215e-20
1.35938 	-0.953125 	0.5 	39.3383 	-0.498591 	-1.06817e-19
1.375 	-0.953125 	0.5 	39.3469 	-0.50155 	1.09362e-20
1.39062 	-0.953125 	0.5 	39.3553 	-0.504403 	6.6172e-19
1.40625 	-0.953125 	0.5 	39.3635 	-0.507591 	4.81207e-19
1.42188 	-0.953125 	0.5 	39.3712 	-0.510417 	2.29819e-19
1.4375 	-0.953125 	0.5 	39.3793 	-0.51336 	5.67458e-19
1.45312 	-0.953125 	0.5 	39.3874 	-0.516419 	5.06977e-19
1.46875 	-0.953125 	0.5 	39.3957 	-0.519209 	8.35965e-19
1.48438 	-0.953125 	0.5 	39.4033 	-0.521884 	1.20911e-18
-0.5 	-0.9375 	0.5 	39.2327 	0.405743 	-3.54656e-20
-0.484375 	-0.9375 	0.5 	39.2287 	0.399532 	8.87275e-21
-0.46875 	-0.9375 	0.5 	39.2211 	0.393604 	5.83281e-20
-0.453125 	-0.9375 	0.5 	39.214 	0.387581 	1.66328e-21
-0.4375 	-0.9375 	0.5 	39.2073 	0.381104 	-4.37496e-19
-0.421875 	-0.9375 	0.5 	39.2005 	0.374778 	-4.05311e-19
-0.40625 	-0.9375 	0.5 	39.1952 	0.367748 	-1.01842e-18
-0.390625 	-0.9375 	0.5 	39.1888 	0.361389 	-8.93836e-19
-0.375 	-0.9375 	0.5 	39.1815 	0.356571 	6.74996e-19
-0.359375 	-0.9375 	0.5 	39.1753 	0.350671 	-1.38666e-20
-0.34375 	-0.9375 	0.5 	39.1701 	0.341343 	4.70051e-20
-0.328125 	-0.9375 	0.5 	39.1643 	0.334946 	1.4971e-19
-0.3125 	-0.9375 	0.5 	39.1595 	0.327277 	2.97538e-20
-0.296875 	-0.9375 	0.5 	39.1545 	0.320892 	-2.01662e-21
-0.28125 	-0.9375 	0.5 	39.1491 	0.313324 	-8.31263e-21
-0.265625 	-0.9375 	0.5 	39.1435 	0.306212 	-1.03628e-19
-0.25 	-0.9375 	0.5 	39.1384 	0.29911 	-8.11196e-20
-0.234375 	-0.9375 	0.5 	39.1338 	0.290683 	-4.74293e-19
-0.21875 	-0.9375 	0.5 	39.1289 	0.281411 	2.33595e-20
-0.203125 	-0.9375 	0.5 	39.1249 	0.273795 	4.61001e-19
-0.1875 	-0.9375 	0.5 	39.1211 	0.26838 	-6.34738e-20
-0.171875 	-0.9375 	0.5 	39.117 	0.260732 	4.47584e-20
-0.15625 	-0.9375 	0.5 	39.1134 	0.252478 	1.14925e-20
-0.140625 	-0.9375 	0.5 	39.1096 	0.245039 	2.0181e-20
-0.125 	-0.9375 	0.5 	39.1057 	0.236818 	-1.76942e-20
-0.109375 	-0.9375 	0.5 	39.1025 	0.228506 	3.72935e-19
-0.09375 	-0.9375 	0.5 	39.0993 	0.219946 	3.49246e-19
-0.078125 	-0.9375 	0.5 	39.0973 	0.212903 	-3.80223e-19
-0.0625 	-0.9375 	0.5 	39.0945 	0.204237 	-2.02012e-19
-0.046875 	-0.9375 	0.5 	39.0921 	0.19542 	2.12639e-19
-0.03125 	-0.9375 	0.5 	39.0885 	0.187563 	1.30057e-19
-0.015625 	-0.9375 	0.5 	39.0851 	0.179755 	-1.31773e-20