-0.5 	-1 	0.5 	39.8876 	-0.436517 	-7.48355e-19
-0.484375 	-1 	0.5 	39.8947 	-0.444322 	-1.15477e-18
-0.46875 	-1 	0.5 	39.9029 	-0.45188 	-3.55731e-19
-0.453125 	-1 	0.5 	39.9107 	-0.458275 	6.42618e-19
-0.4375 	-1 	0.5 	39.9188 	-0.465033 	1.87314e-19
-0.421875 	-1 	0.5 	39.9284 	-0.473213 	2.67421e-19
-0.40625 	-1 	0.5 	39.9384 	-0.482144 	2.30159e-19
-0.390625 	-1 	0.5 	39.9474 	-0.489197 	-3.77468e-19
-0.375 	-1 	0.5 	39.9557 	-0.49405 	-1.08279e-18
-0.359375 	-1 	0.5 	39.9667 	-0.50013 	-5.30973e-19
-0.34375 	-1 	0.5 	39.9777 	-0.506209 	2.08462e-20
-0.328125 	-1 	0.5 	39.9887 	-0.51272 	1.76346e-19
-0.3125 	-1 	0.5 	40.0015 	-0.517943 	2.64195e-19
-0.296875 	-1 	0.5 	40.0146 	-0.523411 	1.28742e-19
-0.28125 	-1 	0.5 	40.0264 	-0.529787 	8.70617e-20
-0.265625 	-1 	0.5 	40.0388 	-0.533106 	2.71028e-19
-0.25 	-1 	0.5 	40.0511 	-0.537882 	-4.07463e-19
-0.234375 	-1 	0.5 	40.0637 	-0.541677 	-5.27925e-19
-0.21875 	-1 	0.5 	40.0762 	-0.54545 	-6.38987e-19
-0.203125 	-1 	0.5 	40.089 	-0.547753 	-1.986e-19
-0.1875 	-1 	0.5 	40.1025 	-0.550992 	-2.01367e-19
-0.171875 	-1 	0.5 	40.1182 	-0.555387 	-8.93185e-20
-0.15625 	-1 	0.5 	40.1335 	-0.558067 	-4.33322e-20
-0.140625 	-1 	0.5 	40.1481 	-0.557997 	-1.03348e-19
-0.125 	-1 	0.5 	40.1618 	-0.558369 	-1.64316e-19
-0.109375 	-1 	0.5 	40.176 	-0.557329 	-4.65687e-21
-0.09375 	-1 	0.5 	40.194 	-0.558588 	-3.88322e-19
-0.078125 	-1 	0.5 	40.2077 	-0.556425 	-1.41975e-19
-0.0625 	-1 	0.5 	40.2221 	-0.553016 	6.10262e-20
-0.046875 	-1 	0.5 	40.2376 	-0.550329 	2.22809e-19
-0.03125 	-1 	0.5 	40.2531 	-0.549017 	9.26292e-20
-0.015625 	-1 	0.5 	40.2674 	-0.546225 	-2.65864e-19
0 	-1 	0.5 	40.2831 	-0.54053 	3.42486e-19
0.015625 	-1 	0.5 	40.2998 	-0.534464 	6.90234e-19
0.03125 	-1 	0.5 	40.3158 	-0.529451 	4.13811e-19
0.046875 	-1 	0.5 	40.3311 	-0.525678 	3.40719e-20
0.0625 	-1 	0.5 	40.3454 	-0.518553 	2.25009e-19
0.078125 	-1 	0.5 	40.3596 	-0.512088 	3.35276e-19
0.09375 	-1 	0.5 	40.3751 	-0.50425 	1.77479e-19
0.109375 	-1 	0.5 	40.3923 	-0.494771 	-4.19315e-19
0.125 	-1 	0.5 	40.4062 	-0.486704 	-5.61143e-19
0.140625 	-1 	0.5 	40.42 	-0.477232 	-4.49194e-19
0.15625 	-1 	0.5 	40.4323 	-0.464213 	-9.04392e-19
0.171875 	-1 	0.5 	40.4449 	-0.455694 	8.82473e-20
0.1875 	-1 	0.5 	40.4583 	-0.44449 	1.66215e-19
0.203125 	-1 	0.5 	40.4723 	-0.427631 	1.2389e-19
0.21875 	-1 	0.5 	40.4846 	-0.415309 	6.84068e-20
0.234375 	-1 	0.5 	40.4945 	-0.403688 	-2.63676e-20
0.25 	-1 	0.5 	40.505 	-0.392527 	-6.95681e-20
0.265625 	-1 	0.5 	40.5163 	-0.379561 	-6.47849e-19
0.28125 	-1 	0.5 	40.5258 	-0.364662 	-2.79459e-19
0.296875 	-1 	0.5 	40.5354 	-0.350665 	4.18878e-19
0.3125 	-1 	0.5 	40.5436 	-0.335876 	1.68124e-19
0.328125 	-1 	0.5 	40.5509 	-0.320551 	-2.5706e-19
0.34375 	-1 	0.5 	40.5611 	-0.305478 	-1.53745e-19
0.359375 	-1 	0.5 	40.5659 	-0.289807 	-1.69183e-19
0.375 	-1 	0.5 	40.5723 	-0.273759 	6.47502e-20
0.390625 	-1 	0.5 	40.5783 	-0.256983 	4.8206e-19
0.40625 	-1 	0.5 	40.583 	-0.239699 	7.09382e-20
0.421875 	-1 	0.5 	40.5861 	-0.224943 	6.25234e-19
0.4375 	-1 	0.5 	40.5907 	-0.207301 	-8.78047e-20
0.453125 	-1 	0.5 	40.5946 	-0.1892 	4.11217e-20
0.46875 	-1 	0.5 	40.5963 	-0.17246 	1.75674e-21
0.484375 	-1 	0.5 	40.5981 	-0.15598 	-3.69329e-19
0.5 	-1 	0.5 	40.5976 	-0.138005 	1.95935e-19
0.515625 	-1 	0.5 	40.597 	-0.122696 	-7.04864e-20
0.53125 	-1 	0.5 	40.5967 	-0.105561 	5.24497e-20
0.546875 	-1 	0.5 	40.5979 	-0.0880018 	-1.20268e-20
0.5625 	-1 	0.5 	40.5944 	-0.0734217 	-4.86631e-20
0.578125 	-1 	0.5 	40.5915 	-0.0583724 	-4.19394e-19
0.59375 	-1 	0.5 	40.5899 	-0.0411489 	-1.30164e-19
0.609375 	-1 	0.5 	40.5856 	-0.0257819 	-6.97557e-20
0.625 	-1 	0.5 	40.5813 	-0.0108982 	-8.42222e-20
0.640625 	-1 	0.5 	40.5774 	0.00502963 	-1.18937e-19
0.65625 	-1 	0.5 	40.5715 	0.0211574 	-6.09936e-20
0.671875 	-1 	0.5 	40.5658 	0.0346141 	1.86653e-20
0.6875 	-1 	0.5 	40.559 	0.0503312 	6.13022e-20
0.703125 	-1 	0.5 	40.5536 	0.0629064 	1.28151e-20
0.71875 	-1 	0.5 	40.5465 	0.0752575 	1.07056e-20
0.734375 	-1 	0.5 	40.5382 	0.0881724 	3.67607e-20
0.75 	-1 	0.5 	40.5293 	0.101351 	5.07511e-19
0.765625 	-1 	0.5 	40.5217 	0.115444 	-1.60649e-19
0.78125 	-1 	0.5 	40.5133 	0.125706 	-7.83222e-21
0.796875 	-1 	0.5 	40.5055 	0.13752 	1.67647e-18
0.8125 	-1 	0.5 	40.4959 	0.146766 	-4.26194e-20
0.828125 	-1 	0.5 	40.4865 	0.15832 	-5.03148e-19
0.84375 	-1 	0.5 	40.4752 	0.166671 	1.71269e-20
0.859375 	-1 	0.5 	40.4648 	0.176479 	-1.14523e-19
0.875 	-1 	0.5 	40.4552 	0.184265 	7.60218e-19
0.890625 	-1 	0.5 	40.4436 	0.192286 	1.42349e-19
0.90625 	-1 	0.5 	40.4325 	0.200205 	3.80873e-20
0.921875 	-1 	0.5 	40.4219 	0.207632 	1.23254e-20
0.9375 	-1 	0.5 	40.4098 	0.215426 	-9.18347e-21
0.953125 	-1 	0.5 	40.3997 	0.223171 	3.08544e-19
0.96875 	-1 	0.5 	40.3888 	0.231026 	-1.6578e-19
0.984375 	-1 	0.5 	40.3775 	0.234332 	3.0958e-19
1 	-1 	0.5 	40.3668 	0.237074 	1.53748e-19
1.01562 	-1 	0.5 	40.3581 	0.241559 	1.08412e-18
1.03125 	-1 	0.5 	40.3456 	0.246611 	2.59146e-19
1.04688 	-1 	0.5 	40.3341 	0.251431 	-4.97051e-20
1.0625 	-1 	0.5 	40.3217 	0.252316 	1.43092e-19
1.07812 	-1 	0.5 	40.3098 	0.25444 	1.2181e-19
1.09375 	-1 	0.5 	40.2998 	0.256253 	6.11191e-20
1.10938 	-1 	0.5 	40.2884 	0.257212 	6.06855e-20
1.125 	-1 	0.5 	40.2768 	0.258188 	6.73691e-20
1.14062 	-1 	0.5 	40.2665 	0.260237 	1.38456e-19
1.15625 	-1 	0.5 	40.2571 	0.263248 	2.68904e-19
1.17188 	-1 	0.5 	40.2475 	0.26447 	2.69342e-19
1.1875 	-1 	0.5 	40.2373 	0.26229 	-2.41351e-19
1.20312 	-1 	0.5 	40.2276 	0.262333 	-4.91048e-19
1.21875 	-1 	0.5 	40.2179 	0.261228 	-8.88197e-20
1.23438 	-1 	0.5 	40.2085 	0.26007 	-9.50391e-20
1.25 	-1 	0.5 	40.1991 	0.258787 	-2.79962e-19
1.26562 	-1 	0.5 	40.1906 	0.258604 	-7.42176e-19
1.28125 	-1 	0.5 	40.1822 	0.257104 	-1.88276e-19
1.29688 	-1 	0.5 	40.1723 	0.254563 	5.65483e-19
1.3125 	-1 	0.5 	40.1637 	0.252458 	-8.88684e-22
1.32812 	-1 	0.5 	40.1558 	0.250641 	-7.54979e-20
1.34375 	-1 	0.5 	40.1485 	0.2463 	-2.79498e-19
1.35938 	-1 	0.5 	40.1411 	0.242372 	-2.07405e-19
1.375 	-1 	0.5 	40.1339 	0.238767 	-3.64206e-19
1.39062 	-1 	0.5 	40.1269 	0.236779 	2.25405e-19
1.40625 	-1 	0.5 	40.1191 	0.233577 	1.4532e-19
1.42188 	-1 	0.5 	40.1128 	0.228876 	1.65045e-19
1.4375 	-1 	0.5 	40.1041 	0.225767 	4.30103e-19
1.45312 	-1 	0.5 	40.0991 	0.22292 	2.15342e-19
1.46875 	-1 	0.5 	40.0935 	0.21891 	4.47354e-19
1.48438 	-1 	0.5 	40.0876 	0.214868 	3.08835e-19
-0.5 	-0.984375 	0.5 	39.8797 	-0.443623 	-5.54862e-19
-0.484375 	-0.984375 	0.5 	39.8871 	-0.451351 	-5.87125e-19
-0.46875 	-0.984375 	0.5 	39.8946 	-0.45908 	-6.19389e-19
-0.453125 	-0.984375 	0.5 	39.9026 	-0.466409 	9.29955e-20
-0.4375 	-0.984375 	0.5 	39.9113 	-0.473746 	1.20848e-19
-0.421875 	-0.984375 	0.5 	39.9213 	-0.482376 	4.16147e-19
-0.40625 	-0.984375 	0.5 	39.9313 	-0.491297 	3.89321e-19
-0.390625 	-0.984375 	0.5 	39.941 	-0.499979 	-9.91271e-20
-0.375 	-0.984375 	0.5 	39.9496 	-0.505029 	-6.03698e-19
-0.359375 	-0.984375 	0.5 	39.9607 	-0.511108 	-5.18796e-20
-0.34375 	-0.984375 	0.5 	39.9702 	-0.518225 	-3.11439e-19
-0.328125 	-0.984375 	0.5 	39.9819 	-0.52466 	-7.67554e-20
-0.3125 	-0.984375 	0.5 	39.994 	-0.530231 	4.88525e-19
-0.296875 	-0.984375 	0.5 	40.0068 	-0.535467 	6.20401e-19
-0.28125 	-0.984375 	0.5 	40.0208 	-0.540551 	2.41465e-19
-0.265625 	-0.984375 	0.5 	40.0345 	-0.546467 	1.27518e-19
-0.25 	-0.984375 	0.5 	40.0467 	-0.550657 	-3.28093e-19
-0.234375 	-0.984375 	0.5 	40.0593 	-0.554333 	-4.12072e-19
-0.21875 	-0.984375 	0.5 	40.0719 	-0.558009 	-4.9605e-19
-0.203125 	-0.984375 	0.5 	40.085 	-0.561244 	-2.66844e-19
-0.1875 	-0.984375 	0.5 	40.1002 	-0.563259 	-1.91178e-19
-0.171875 	-0.984375 	0.5 	40.1157 	-0.565576 	-1.69897e-19
-0.15625 	-0.984375 	0.5 	40.1311 	-0.568102 	-1.55152e-19
-0.140625 	-0.984375 	0.5 	40.1464 	-0.570628 	-1.40406e-19
-0.125 	-0.984375 	0.5 	40.1623 	-0.573112 	-1.86404e-19
-0.109375 	-0.984375 	0.5 	40.1773 	-0.571971 	-1.59529e-19
-0.09375 	-0.984375 	0.5 	40.1923 	-0.570868 	-1.07082e-19
-0.078125 	-0.984375 	0.5 	40.2073 	-0.569765 	-5.46337e-20
-0.0625 	-0.984375 	0.5 	40.2223 	-0.568697 	2.13457e-20
-0.046875 	-0.984375 	0.5 	40.2382 	-0.567427 	-1.25386e-19
-0.03125 	-0.984375 	0.5 	40.2539 	-0.56613 	-2.73657e-19
-0.015625 	-0.984375 	0.5 	40.2718 	-0.56308 	7.6129e-20
0 	-0.984375 	0.5 	40.2894 	-0.557366 	8.13268e-19
0.015625 	-0.984375 	0.5 	40.3051 	-0.550929 	6.92799e-19
0.03125 	-0.984375 	0.5 	40.3201 	-0.544618 	7.40327e-19
0.046875 	-0.984375 	0.5 	40.337 	-0.539191 	4.27751e-19
0.0625 	-0.984375 	0.5 	40.3521 	-0.534059 	3.30934e-19
0.078125 	-0.984375 	0.5 	40.3677 	-0.527425 	3.93192e-19
0.09375 	-0.984375 	0.5 	40.3841 	-0.520872 	5.00776e-19
0.109375 	-0.984375 	0.5 	40.4012 	-0.510007 	-1.08455e-19
0.125 	-0.984375 	0.5 	40.4152 	-0.501599 	-2.12113e-19
0.140625 	-0.984375 	0.5 	40.4309 	-0.490543 	-3.21071e-19
0.15625 	-0.984375 	0.5 	40.4439 	-0.480227 	-1.41165e-19
0.171875 	-0.984375 	0.5 	40.4575 	-0.468956 	7.32964e-19
0.1875 	-0.984375 	0.5 	40.4707 	-0.458386 	2.08324e-19
0.203125 	-0.984375 	0.5 	40.4847 	-0.441901 	2.85757e-19
0.21875 	-0.984375 	0.5 	40.4982 	-0.425652 	1.09434e-19
0.234375 	-0.984375 	0.5 	40.51 	-0.414408 	-9.98037e-21
0.25 	-0.984375 	0.5 	40.5211 	-0.40349 	-1.10269e-19
0.265625 	-0.984375 	0.5 	40.5314 	-0.389723 	-2.28105e-19
0.28125 	-0.984375 	0.5 	40.5409 	-0.374616 	3.36598e-20
0.296875 	-0.984375 	0.5 	40.5503 	-0.359324 	1.194e-19
0.3125 	-0.984375 	0.5 	40.5584 	-0.343414 	-1.92031e-19
0.328125 	-0.984375 	0.5 	40.5665 	-0.327878 	-4.70114e-19
0.34375 	-0.984375 	0.5 	40.5758 	-0.311553 	-2.60457e-19
0.359375 	-0.984375 	0.5 	40.5834 	-0.294366 	-4.54883e-19
0.375 	-0.984375 	0.5 	40.5901 	-0.279301 	-1.21574e-19
0.390625 	-0.984375 	0.5 	40.5956 	-0.263328 	1.24922e-19
0.40625 	-0.984375 	0.5 	40.5979 	-0.245015 	3.41223e-20
0.421875 	-0.984375 	0.5 	40.6036 	-0.227943 	2.12044e-19
0.4375 	-0.984375 	0.5 	40.6076 	-0.210509 	-5.22257e-19
0.453125 	-0.984375 	0.5 	40.6106 	-0.191397 	-3.9561e-19
0.46875 	-0.984375 	0.5 	40.6133 	-0.174495 	-3.92686e-19
0.484375 	-0.984375 	0.5 	40.6146 	-0.156986 	-4.5798e-19
0.5 	-0.984375 	0.5 	40.6152 	-0.138808 	-3.00522e-19
0.515625 	-0.984375 	0.5 	40.615 	-0.119702 	-1.05306e-19
0.53125 	-0.984375 	0.5 	40.6134 	-0.1047 	3.9086e-20
0.546875 	-0.984375 	0.5 	40.6132 	-0.0885965 	-1.02694e-20
0.5625 	-0.984375 	0.5 	40.6094 	-0.072283 	1.84831e-21
0.578125 	-0.984375 	0.5 	40.6083 	-0.0559438 	-2.17391e-19
0.59375 	-0.984375 	0.5 	40.6064 	-0.039147 	-1.58741e-20
0.609375 	-0.984375 	0.5 	40.6034 	-0.0195475 	-2.23319e-20
0.625 	-0.984375 	0.5 	40.5978 	-0.00526096 	-7.93106e-20
0.640625 	-0.984375 	0.5 	40.5919 	0.00972516 	-3.33936e-19
0.65625 	-0.984375 	0.5 	40.5859 	0.0253054 	-1.32375e-19
0.671875 	-0.984375 	0.5 	40.58 	0.0411475 	-1.19747e-20
0.6875 	-0.984375 	0.5 	40.5729 	0.0563279 	-6.3038e-20
0.703125 	-0.984375 	0.5 	40.5678 	0.070001 	2.99516e-21
0.71875 	-0.984375 	0.5 	40.5588 	0.083363 	-2.38708e-19
0.734375 	-0.984375 	0.5 	40.5503 	0.0968963 	2.76461e-21
0.75 	-0.984375 	0.5 	40.5432 	0.109548 	-2.41211e-19
0.765625 	-0.984375 	0.5 	40.5339 	0.124448 	1.9004e-19
0.78125 	-0.984375 	0.5 	40.5257 	0.135599 	1.31565e-19
0.796875 	-0.984375 	0.5 	40.5171 	0.145795 	1.51869e-19
0.8125 	-0.984375 	0.5 	40.5082 	0.156079 	1.88236e-19
0.828125 	-0.984375 	0.5 	40.4955 	0.166277 	3.86457e-19
0.84375 	-0.984375 	0.5 	40.4848 	0.177901 	-9.74917e-20
0.859375 	-0.984375 	0.5 	40.4732 	0.185811 	-7.56573e-19
0.875 	-0.984375 	0.5 	40.4625 	0.195668 	1.99819e-19
0.890625 	-0.984375 	0.5 	40.4522 	0.202296 	2.1577e-19
0.90625 	-0.984375 	0.5 	40.4408 	0.210798 	6.38585e-20
0.921875 	-0.984375 	0.5 	40.4292 	0.218776 	-9.65827e-21
0.9375 	-0.984375 	0.5 	40.4169 	0.226935 	-2.11607e-19
0.953125 	-0.984375 	0.5 	40.4059 	0.234313 	-4.14291e-20
0.96875 	-0.984375 	0.5 	40.3938 	0.240672 	-3.65942e-19
0.984375 	-0.984375 	0.5 	40.3822 	0.245713 	2.81866e-20
1 	-0.984375 	0.5 	40.3713 	0.248502 	4.67985e-20
1.01562 	-0.984375 	0.5 	40.3615 	0.253299 	5.45664e-19
1.03125 	-0.984375 	0.5 	40.3492 	0.257683 	-1.52464e-19
1.04688 	-0.984375 	0.5 	40.3365 	0.262953 	-2.18054e-19
1.0625 	-0.984375 	0.5 	40.3231 	0.265008 	-1.94026e-20
1.07812 	-0.984375 	0.5 	40.3113 	0.266508 	4.41702e-20
1.09375 	-0.984375 	0.5 	40.3012 	0.266983 	1.00862e-19
1.10938 	-0.984375 	0.5 	40.2909 	0.270875 	2.50972e-20
1.125 	-0.984375 	0.5 	40.2793 	0.270577 	2.86682e-20
1.14062 	-0.984375 	0.5 	40.2685 	0.269946 	3.58181e-20
1.15625 	-0.984375 	0.5 	40.2568 	0.270219 	6.89708e-20
1.17188 	-0.984375 	0.5 	40.247 	0.27334 	2.35185e-19
1.1875 	-0.984375 	0.5 	40.2369 	0.272229 	6.61191e-20
1.20312 	-0.984375 	0.5 	40.2272 	0.271998 	-8.05982e-20
1.21875 	-0.984375 	0.5 	40.218 	0.271212 	4.35724e-21
1.23438 	-0.984375 	0.5 	40.2086 	0.270089 	4.48756e-22
1.25 	-0.984375 	0.5 	40.1988 	0.268436 	-3.81097e-20
1.26562 	-0.984375 	0.5 	40.1896 	0.26738 	-2.89815e-19
1.28125 	-0.984375 	0.5 	40.1805 	0.265495 	2.66986e-19
1.29688 	-0.984375 	0.5 	40.1701 	0.262554 	1.09758e-18
1.3125 	-0.984375 	0.5 	40.1613 	0.2601 	4.7171e-19
1.32812 	-0.984375 	0.5 	40.153 	0.258751 	3.19349e-20
1.34375 	-0.984375 	0.5 	40.1459 	0.254144 	-1.3724e-19
1.35938 	-0.984375 	0.5 	40.1383 	0.251315 	4.05553e-19
1.375 	-0.984375 	0.5 	40.1303 	0.247578 	3.72145e-19
1.39062 	-0.984375 	0.5 	40.123 	0.244556 	4.76688e-19
1.40625 	-0.984375 	0.5 	40.1156 	0.240561 	2.78906e-19
1.42188 	-0.984375 	0.5 	40.1086 	0.236348 	1.27354e-19
1.4375 	-0.984375 	0.5 	40.1018 	0.231981 	2.16234e-19
1.45312 	-0.984375 	0.5 	40.096 	0.228524 	2.38121e-19
1.46875 	-0.984375 	0.5 	40.0901 	0.224482 	9.96029e-20
1.48438 	-0.984375 	0.5 	40.0841 	0.220511 	-1.26159e-19
-0.5 	-0.96875 	0.5 	39.8705 	-0.451105 	-7.52693e-19
-0.484375 	-0.96875 	0.5 	39.8782 	-0.458768 	-6.40752e-19
-0.46875 	-0.96875 	0.5 	39.8859 	-0.466431 	-5.2881e-19
-0.453125 	-0.96875 	0.5 	39.8939 	-0.474213 	-9.22312e-20
-0.4375 	-0.96875 	0.5 	39.9037 	-0.482994 	1.04526e-19
-0.421875 	-0.96875 	0.5 	39.9141 	-0.492008 	4.71062e-20
-0.40625 	-0.96875 	0.5 	39.9241 	-0.500811 	1.5063e-19
-0.390625 	-0.96875 	0.5 	39.9341 	-0.50975 	1.05168e-19
-0.375 	-0.96875 	0.5 	39.9436 	-0.516007 	-1.24605e-19
-0.359375 	-0.96875 	0.5 	39.9533 	-0.523044 	-3.21356e-19
-0.34375 	-0.96875 	0.5 	39.9633 	-0.530174 	-6.02364e-19
-0.328125 	-0.96875 	0.5 	39.975 	-0.536562 	-3.33492e-19
-0.3125 	-0.96875 	0.5 	39.9876 	-0.542385 	2.56497e-19
-0.296875 	-0.96875 	0.5 	40.0007 	-0.547577 	2.42207e-19
-0.28125 	-0.96875 	0.5 	40.014 	-0.554512 	4.6342e-19
-0.265625 	-0.96875 	0.5 	40.0276 	-0.560811 	4.72268e-19
-0.25 	-0.96875 	0.5 	40.0413 	-0.565203 	-1.58727e-19
-0.234375 	-0.96875 	0.5 	40.0533 	-0.569476 	-6.72675e-19
-0.21875 	-0.96875 	0.5 	40.0666 	-0.572438 	-2.4193e-19
-0.203125 	-0.96875 	0.5 	40.0814 	-0.575653 	-8.64626e-20
-0.1875 	-0.96875 	0.5 	40.0953 	-0.579524 	-4.76591e-20
-0.171875 	-0.96875 	0.5 	40.111 	-0.580361 	2.89999e-20
-0.15625 	-0.96875 	0.5 	40.1262 	-0.583569 	2.23733e-20
-0.140625 	-0.96875 	0.5 	40.1444 	-0.585204 	-5.29284e-20
-0.125 	-0.96875 	0.5 	40.1614 	-0.588628 	1.39081e-20
-0.109375 	-0.96875 	0.5 	40.1781 	-0.589211 	-2.67801e-19
-0.09375 	-0.96875 	0.5 	40.1936 	-0.587267 	-7.74736e-19
-0.078125 	-0.96875 	0.5 	40.2083 	-0.586651 	-3.98333e-19
-0.0625 	-0.96875 	0.5 	40.2237 	-0.584298 	8.53027e-19
-0.046875 	-0.96875 	0.5 	40.2415 	-0.58338 	-2.78096e-19
-0.03125 	-0.96875 	0.5 	40.2578 	-0.581669 	-3.64845e-19
-0.015625 	-0.96875 	0.5 	40.2773 	-0.579854 	-5.98643e-19
0 	-0.96875 	0.5 	40.2969 	-0.574486 	4.04945e-19
0.015625 	-0.96875 	0.5 	40.3112 	-0.567746 	5.52134e-19
0.03125 	-0.96875 	0.5 	40.3278 	-0.562133 	3.15286e-19
0.046875 	-0.96875 	0.5 	40.344 	-0.556083 	3.24556e-19
0.0625 	-0.96875 	0.5 	40.3604 	-0.549541 	9.90396e-20
0.078125 	-0.96875 	0.5 	40.3768 	-0.536323 	1.07486e-19
0.09375 	-0.96875 	0.5 	40.3936 	-0.530655 	6.15992e-20
0.109375 	-0.96875 	0.5 	40.4104 	-0.524913 	1.92903e-20
0.125 	-0.96875 	0.5 	40.4253 	-0.515855 	1.02046e-19
0.140625 	-0.96875 	0.5 	40.4395 	-0.50658 	3.35623e-19
0.15625 	-0.96875 	0.5 	40.4549 	-0.495831 	-1.71342e-20
0.171875 	-0.96875 	0.5 	40.4692 	-0.483675 	5.62749e-20
0.1875 	-0.96875 	0.5 	40.4832 	-0.472179 	2.28991e-19
0.203125 	-0.96875 	0.5 	40.4977 	-0.458261 	-2.75022e-19
0.21875 	-0.96875 	0.5 	40.5098 	-0.443029 	5.79408e-20
0.234375 	-0.96875 	0.5 	40.5214 	-0.428653 	6.14982e-20
0.25 	-0.96875 	0.5 	40.5344 	-0.41767 	-3.46609e-19
0.265625 	-0.96875 	0.5 	40.5481 	-0.399575 	6.11056e-19
0.28125 	-0.96875 	0.5 	40.5547 	-0.384716 	2.53118e-19
0.296875 	-0.96875 	0.5 	40.5667 	-0.369173 	-3.87864e-19
0.3125 	-0.96875 	0.5 	40.5708 	-0.352819 	5.67639e-19
0.328125 	-0.96875 	0.5 	40.58 	-0.334882 	8.77237e-20
0.34375 	-0.96875 	0.5 	40.5902 	-0.317757 	-5.88926e-19
0.359375 	-0.96875 	0.5 	40.5987 	-0.302631 	-5.49881e-19
0.375 	-0.96875 	0.5 	40.6072 	-0.287462 	-4.95088e-19
0.390625 	-0.96875 	0.5 	40.6122 	-0.268822 	4.51136e-19
0.40625 	-0.96875 	0.5 	40.6158 	-0.251077 	8.14515e-19
0.421875 	-0.96875 	0.5 	40.6208 	-0.232489 	1.32242e-19
0.4375 	-0.96875 	0.5 	40.6241 	-0.214761 	3.34189e-20
0.453125 	-0.96875 	0.5 	40.6275 	-0.195747 	-9.97169e-20
0.46875 	-0.96875 	0.5 	40.63 	-0.174914 	-7.09524e-20
0.484375 	-0.96875 	0.5 	40.6324 	-0.159915 	-1.31037e-18
0.5 	-0.96875 	0.5 	40.633 	-0.139542 	-2.74336e-19
0.515625 	-0.96875 	0.5 	40.6336 	-0.119749 	3.2635e-20
0.53125 	-0.96875 	0.5 	40.6309 	-0.104277 	-6.18785e-21
0.546875 	-0.96875 	0.5 	40.629 	-0.0877031 	1.91348e-20
0.5625 	-0.96875 	0.5 	40.627 	-0.0705568 	1.41714e-20
0.578125 	-0.96875 	0.5 	40.6251 	-0.0535153 	-1.53887e-20
0.59375 	-0.96875 	0.5 	40.6216 	-0.0334588 	3.29053e-20
0.609375 	-0.96875 	0.5 	40.6175 	-0.0126284 	-5.71779e-21
0.625 	-0.96875 	0.5 	40.6126 	0.000753044 	4.89903e-21
0.640625 	-0.96875 	0.5 	40.6051 	0.0162974 	-6.61973e-20
0.65625 	-0.96875 	0.5 	40.6011 	0.032254 	5.37837e-19
0.671875 	-0.96875 	0.5 	40.596 	0.0470734 	8.84828e-20
0.6875 	-0.96875 	0.5 	40.5879 	0.0617313 	4.11072e-20
0.703125 	-0.96875 	0.5 	40.5826 	0.0783072 	1.26016e-20
0.71875 	-0.96875 	0.5 	40.5701 	0.0920428 	2.25434e-19
0.734375 	-0.96875 	0.5 	40.5623 	0.105717 	-2.83907e-20
0.75 	-0.96875 	0.5 	40.554 	0.119683 	1.92934e-19
0.765625 	-0.96875 	0.5 	40.5462 	0.133715 	2.22006e-19
0.78125 	-0.96875 	0.5 	40.5357 	0.144915 	5.52845e-20
0.796875 	-0.96875 	0.5 	40.5271 	0.157716 	5.98924e-21
0.8125 	-0.96875 	0.5 	40.5161 	0.170046 	-4.1904e-20
0.828125 	-0.96875 	0.5 	40.5054 	0.17892 	9.91127e-21
0.84375 	-0.96875 	0.5 	40.4939 	0.188338 	-2.57726e-19
0.859375 	-0.96875 	0.5 	40.4824 	0.19722 	-1.81331e-19
0.875 	-0.96875 	0.5 	40.4713 	0.206956 	4.51203e-20
0.890625 	-0.96875 	0.5 	40.4598 	0.215648 	8.44511e-20
0.90625 	-0.96875 	0.5 	40.449 	0.226103 	2.83937e-19
0.921875 	-0.96875 	0.5 	40.437 	0.230977 	-2.063e-20
0.9375 	-0.96875 	0.5 	40.4252 	0.238116 	-2.68031e-20
0.953125 	-0.96875 	0.5 	40.412 	0.244522 	2.53828e-19
0.96875 	-0.96875 	0.5 	40.3997 	0.249815 	1.70339e-19
0.984375 	-0.96875 	0.5 	40.3873 	0.255068 	-1.30509e-20
1 	-0.96875 	0.5 	40.376 	0.260124 	1.10155e-19
1.01562 	-0.96875 	0.5 	40.3627 	0.260878 	-6.14755e-19
1.03125 	-0.96875 	0.5 	40.3511 	0.265988 	-6.52817e-19
1.04688 	-0.96875 	0.5 	40.3383 	0.274398 	-4.1934e-19
1.0625 	-0.96875 	0.5 	40.3268 	0.276284 	-8.03245e-20
1.07812 	-0.96875 	0.5 	40.315 	0.277773 	-1.70736e-20
1.09375 	-0.96875 	0.5 	40.3037 	0.279275 	2.07784e-19
1.10938 	-0.96875 	0.5 	40.2921 	0.278579 	7.11143e-20
1.125 	-0.96875 	0.5 	40.2815 	0.281015 	5.64129e-22
1.14062 	-0.96875 	0.5 	40.2707 	0.280435 	7.12589e-21
1.15625 	-0.96875 	0.5 	40.2603 	0.281421 	1.05713e-20
1.17188 	-0.96875 	0.5 	40.2488 	0.281821 	3.84611e-20
1.1875 	-0.96875 	0.5 	40.2368 	0.281913 	7.9161e-20
1.20312 	-0.96875 	0.5 	40.227 	0.281809 	6.82293e-20
1.21875 	-0.96875 	0.5 	40.2175 	0.280458 	4.94128e-20
1.23438 	-0.96875 	0.5 	40.208 	0.278942 	2.76261e-20
1.25 	-0.96875 	0.5 	40.1984 	0.277253 	2.71635e-21
1.26562 	-0.96875 	0.5 	40.1885 	0.276573 	-2.259e-20
1.28125 	-0.96875 	0.5 	40.1788 	0.273724 	-5.59183e-20
1.29688 	-0.96875 	0.5 	40.1695 	0.271058 	9.36765e-20
1.3125 	-0.96875 	0.5 	40.1598 	0.268315 	3.32342e-19
1.32812 	-0.96875 	0.5 	40.1506 	0.265722 	1.21308e-19
1.34375 	-0.96875 	0.5 	40.143 	0.262761 	2.62227e-19
1.35938 	-0.96875 	0.5 	40.1351 	0.259292 	3.85657e-19
1.375 	-0.96875 	0.5 	40.1271 	0.256374 	7.73424e-19
1.39062 	-0.96875 	0.5 	40.1191 	0.251773 	7.96668e-19
1.40625 	-0.96875 	0.5 	40.1118 	0.247684 	9.46705e-19
1.42188 	-0.96875 	0.5 	40.1049 	0.243368 	7.46882e-19
1.4375 	-0.96875 	0.5 	40.0985 	0.238682 	-7.48069e-20
1.45312 	-0.96875 	0.5 	40.0924 	0.234763 	1.2122e-19
1.46875 	-0.96875 	0.5 	40.0864 	0.230713 	-1.66994e-19
1.48438 	-0.96875 	0.5 	40.0803 	0.227081 	-1.44482e-19
-0.5 	-0.953125 	0.5 	39.8616 	-0.459587 	-2.68743e-19
-0.484375 	-0.953125 	0.5 	39.8683 	-0.466906 	-1.09431e-18
-0.46875 	-0.953125 	0.5 	39.8764 	-0.474724 	-5.59147e-19
-0.453125 	-0.953125 	0.5 	39.8849 	-0.482365 	-3.79539e-20
-0.4375 	-0.953125 	0.5 	39.8946 	-0.492854 	7.30375e-20
-0.421875 	-0.953125 	0.5 	39.9044 	-0.500332 	6.766e-19
-0.40625 	-0.953125 	0.5 	39.9152 	-0.509548 	4.65557e-19
-0.390625 	-0.953125 	0.5 	39.9261 	-0.519008 	1.39455e-19
-0.375 	-0.953125 	0.5 	39.9363 	-0.527125 	4.92578e-21
-0.359375 	-0.953125 	0.5 	39.9476 	-0.5339 	3.95506e-20
-0.34375 	-0.953125 	0.5 	39.9589 	-0.540674 	7.41754e-20
-0.328125 	-0.953125 	0.5 	39.9701 	-0.547448 	1.088e-19
-0.3125 	-0.953125 	0.5 	39.9814 	-0.554222 	1.43425e-19
-0.296875 	-0.953125 	0.5 	39.9943 	-0.560804 	2.22328e-19
-0.28125 	-0.953125 	0.5 	40.0078 	-0.567333 	3.07134e-19
-0.265625 	-0.953125 	0.5 	40.0214 	-0.573862 	3.9194e-19
-0.25 	-0.953125 	0.5 	40.0353 	-0.57952 	1.90419e-19
-0.234375 	-0.953125 	0.5 	40.0483 	-0.583645 	-2.31453e-19
-0.21875 	-0.953125 	0.5 	40.0628 	-0.58681 	-2.20199e-20
-0.203125 	-0.953125 	0.5 	40.0771 	-0.590463 	4.3968e-20
-0.1875 	-0.953125 	0.5 	40.0913 	-0.594121 	1.0926e-19
-0.171875 	-0.953125 	0.5 	40.1058 	-0.597285 	1.60838e-19
-0.15625 	-0.953125 	0.5 	40.1256 	-0.59765 	6.38303e-20
-0.140625 	-0.953125 	0.5 	40.144 	-0.600759 	-1.6931e-20
-0.125 	-0.953125 	0.5 	40.1602 	-0.604441 	1.31289e-19
-0.109375 	-0.953125 	0.5 	40.1779 	-0.60512 	7.01669e-20
-0.09375 	-0.953125 	0.5 	40.194 	-0.605309 	-3.49198e-19
-0.078125 	-0.953125 	0.5 	40.209 	-0.60439 	-1.74761e-19
-0.0625 	-0.953125 	0.5 	40.2252 	-0.599791 	1.65072e-18
-0.046875 	-0.953125 	0.5 	40.2444 	-0.598621 	1.46974e-19
-0.03125 	-0.953125 	0.5 	40.2635 	-0.59697 	-3.57846e-19
-0.015625 	-0.953125 	0.5 	40.284 	-0.594241 	-3.68864e-20
0 	-0.953125 	0.5 	40.3038 	-0.591589 	1.09756e-19
0.015625 	-0.953125 	0.5 	40.3201 	-0.585155 	2.98481e-19
0.03125 	-0.953125 	0.5 	40.3362 	-0.578878 	4.48572e-19
0.046875 	-0.953125 	0.5 	40.3519 	-0.572673 	1.94204e-19
0.0625 	-0.953125 	0.5 	40.3687 	-0.565632 	-3.65981e-19
0.078125 	-0.953125 	0.5 	40.3866 	-0.557224 	-3.5031e-20
0.09375 	-0.953125 	0.5 	40.4033 	-0.550517 	-8.36424e-20
0.109375 	-0.953125 	0.5 	40.4214 	-0.54277 	-1.40469e-20
0.125 	-0.953125 	0.5 	40.4372 	-0.531682 	1.66926e-20
0.140625 	-0.953125 	0.5 	40.4508 	-0.522423 	2.62007e-19
0.15625 	-0.953125 	0.5 	40.4658 	-0.511721 	4.82819e-20
0.171875 	-0.953125 	0.5 	40.4804 	-0.499858 	1.39697e-19
0.1875 	-0.953125 	0.5 	40.4963 	-0.48639 	1.07409e-19
0.203125 	-0.953125 	0.5 	40.5097 	-0.470167 	-1.6074e-20
0.21875 	-0.953125 	0.5 	40.5222 	-0.456656 	3.65927e-20
0.234375 	-0.953125 	0.5 	40.5327 	-0.440439 	4.44793e-19
0.25 	-0.953125 	0.5 	40.5465 	-0.426729 	-4.04937e-20
0.265625 	-0.953125 	0.5 	40.5602 	-0.409927 	5.20571e-19
0.28125 	-0.953125 	0.5 	40.5701 	-0.394448 	-8.58532e-19
0.296875 	-0.953125 	0.5 	40.5829 	-0.378988 	-9.01958e-19
0.3125 	-0.953125 	0.5 	40.5913 	-0.363383 	1.64504e-19
0.328125 	-0.953125 	0.5 	40.5991 	-0.343979 	-1.10661e-19
0.34375 	-0.953125 	0.5 	40.6072 	-0.324841 	-1.88229e-19
0.359375 	-0.953125 	0.5 	40.6185 	-0.311477 	-1.15198e-18
0.375 	-0.953125 	0.5 	40.6243 	-0.292793 	1.6513e-19
0.390625 	-0.953125 	0.5 	40.6305 	-0.274323 	4.4051e-19
0.40625 	-0.953125 	0.5 	40.6342 	-0.256108 	1.08839e-18
0.421875 	-0.953125 	0.5 	40.6387 	-0.2361 	-3.0268e-19
0.4375 	-0.953125 	0.5 	40.6423 	-0.215904 	-5.71103e-20
0.453125 	-0.953125 	0.5 	40.6457 	-0.197181 	-6.78253e-20
0.46875 	-0.953125 	0.5 	40.6476 	-0.176697 	1.36433e-18
0.484375 	-0.953125 	0.5 	40.6493 	-0.15854 	-2.14171e-20
0.5 	-0.953125 	0.5 	40.651 	-0.140155 	-1.81194e-19
0.515625 	-0.953125 	0.5 	40.6496 	-0.123176 	-1.11666e-19
0.53125 	-0.953125 	0.5 	40.6493 	-0.103519 	-9.04071e-20
0.546875 	-0.953125 	0.5 	40.6477 	-0.0842754 	1.01206e-19
0.5625 	-0.953125 	0.5 	40.6454 	-0.0673228 	4.56067e-19
0.578125 	-0.953125 	0.5 	40.6431 	-0.0500751 	3.79698e-21
0.59375 	-0.953125 	0.5 	40.638 	-0.0333671 	-9.29675e-20
0.609375 	-0.953125 	0.5 	40.6332 	-0.00684704 	-1.16079e-21
0.625 	-0.953125 	0.5 	40.629 	0.00811536 	-1.86779e-20
0.640625 	-0.953125 	0.5 	40.6225 	0.0210941 	-4.53023e-20
0.65625 	-0.953125 	0.5 	40.6203 	0.0378125 	3.74206e-20
0.671875 	-0.953125 	0.5 	40.6122 	0.0533355 	1.72006e-19
0.6875 	-0.953125 	0.5 	40.6043 	0.0699716 	4.71263e-20
0.703125 	-0.953125 	0.5 	40.5974 	0.0866587 	8.60795e-21
0.71875 	-0.953125 	0.5 	40.5861 	0.100581 	1.83594e-19
0.734375 	-0.953125 	0.5 	40.576 	0.114705 	-1.15492e-19
0.75 	-0.953125 	0.5 	40.5664 	0.128915 	1.3614e-19
0.765625 	-0.953125 	0.5 	40.5586 	0.142946 	1.61289e-19
0.78125 	-0.953125 	0.5 	40.548 	0.154051 	1.09709e-20
0.796875 	-0.953125 	0.5 	40.538 	0.168598 	1.27714e-19
0.8125 	-0.953125 	0.5 	40.5265 	0.179546 	-2.62911e-19
0.828125 	-0.953125 	0.5 	40.5156 	0.18928 	-1.47336e-19
0.84375 	-0.953125 	0.5 	40.5032 	0.199915 	-4.27812e-20
0.859375 	-0.953125 	0.5 	40.4927 	0.210003 	-3.05593e-20
0.875 	-0.953125 	0.5 	40.4817 	0.219458 	-1.42538e-20
0.890625 	-0.953125 	0.5 	40.4705 	0.228106 	1.91429e-21
0.90625 	-0.953125 	0.5 	40.458 	0.234946 	-4.82627e-20
0.921875 	-0.953125 	0.5 	40.4461 	0.242339 	-8.08583e-20
0.9375 	-0.953125 	0.5 	40.4309 	0.251511 	-2.30863e-19
0.953125 	-0.953125 	0.5 	40.4182 	0.255387 	1.92746e-19
0.96875 	-0.953125 	0.5 	40.4065 	0.261061 	5.3425e-19
0.984375 	-0.953125 	0.5 	40.3933 	0.266112 	-8.22781e-20
1 	-0.953125 	0.5 	40.3791 	0.274376 	-1.02608e-19
1.01562 	-0.953125 	0.5 	40.3672 	0.279068 	7.98691e-20
1.03125 	-0.953125 	0.5 	40.3553 	0.282067 	-1.80559e-19
1.04688 	-0.953125 	0.5 	40.3428 	0.284218 	-2.67809e-19
1.0625 	-0.953125 	0.5 	40.3294 	0.287661 	-2.65539e-19
1.07812 	-0.953125 	0.5 	40.318 	0.289321 	-3.21182e-20
1.09375 	-0.953125 	0.5 	40.3064 	0.289824 	2.81809e-20
1.10938 	-0.953125 	0.5 	40.2948 	0.289945 	2.57147e-20
1.125 	-0.953125 	0.5 	40.2831 	0.290065 	2.32485e-20
1.14062 	-0.953125 	0.5 	40.2717 	0.290217 	4.08856e-20
1.15625 	-0.953125 	0.5 	40.2592 	0.289535 	3.45251e-19
1.17188 	-0.953125 	0.5 	40.2467 	0.288853 	6.49617e-19
1.1875 	-0.953125 	0.5 	40.2365 	0.293693 	7.56968e-20
1.20312 	-0.953125 	0.5 	40.2247 	0.292235 	2.28086e-19
1.21875 	-0.953125 	0.5 	40.2156 	0.289536 	2.41575e-20
1.23438 	-0.953125 	0.5 	40.2068 	0.28595 	-6.21867e-24
1.25 	-0.953125 	0.5 	40.1963 	0.286607 	-2.58388e-20
1.26562 	-0.953125 	0.5 	40.1861 	0.285427 	-1.99524e-20
1.28125 	-0.953125 	0.5 	40.1754 	0.28281 	-9.53894e-20
1.29688 	-0.953125 	0.5 	40.1656 	0.279049 	-3.85978e-19
1.3125 	-0.953125 	0.5 	40.1567 	0.276601 	-2.08999e-19
1.32812 	-0.953125 	0.5 	40.148 	0.274249 	3.98796e-20
1.34375 	-0.953125 	0.5 	40.1398 	0.270092 	-7.71815e-20
1.35938 	-0.953125 	0.5 	40.1316 	0.267708 	6.65182e-19
1.375 	-0.953125 	0.5 	40.1236 	0.264868 	1.08172e-18
1.39062 	-0.953125 	0.5 	40.1158 	0.258802 	4.02428e-19
1.40625 	-0.953125 	0.5 	40.1077 	0.255139 	1.2062e-18
1.42188 	-0.953125 	0.5 	40.1019 	0.250166 	-2.47967e-20
1.4375 	-0.953125 	0.5 	40.0945 	0.245615 	-6.31352e-19
1.45312 	-0.953125 	0.5 	40.0888 	0.241576 	-8.35719e-23
1.46875 	-0.953125 	0.5 	40.0827 	0.237871 	1.66056e-19
1.48438 	-0.953125 	0.5 	40.0765 	0.234113 	1.81482e-19
-0.5 	-0.9375 	0.5 	39.8525 	-0.465797 	5.60809e-19
-0.484375 	-0.9375 	0.5 	39.8594 	-0.475423 	-5.16159e-19
-0.46875 	-0.9375 	0.5 	39.8673 	-0.483163 	-1.93426e-19
-0.453125 	-0.9375 	0.5 	39.8759 	-0.490473 	-3.15576e-20
-0.4375 	-0.9375 	0.5 	39.8856 	-0.501525 	1.54443e-20
-0.421875 	-0.9375 	0.5 	39.8955 	-0.510696 	4.09444e-19
-0.40625 	-0.9375 	0.5 	39.9064 	-0.520128 	9.68556e-20
-0.390625 	-0.9375 	0.5 	39.9178 	-0.529091 	2.44429e-19
-0.375 	-0.9375 	0.5 	39.9282 	-0.53724 	2.06175e-20
-0.359375 	-0.9375 	0.5 	39.9394 	-0.546177 	2.51695e-21
-0.34375 	-0.9375 	0.5 	39.9468 	-0.551379 	4.13942e-22
-0.328125 	-0.9375 	0.5 	39.9599 	-0.558885 	5.21235e-20
-0.3125 	-0.9375 	0.5 	39.9727 	-0.565831 	8.55653e-20
-0.296875 	-0.9375 	0.5 	39.9865 	-0.573448 	2.87474e-20
-0.28125 	-0.9375 	0.5 	39.9996 	-0.578893 	1.81622e-20
-0.265625 	-0.9375 	0.5 	40.0137 	-0.585192 	-1.38326e-20
-0.25 	-0.9375 	0.5 	40.0282 	-0.59192 	-5.65543e-20
-0.234375 	-0.9375 	0.5 	40.0439 	-0.598872 	-1.19851e-19
-0.21875 	-0.9375 	0.5 	40.0584 	-0.603463 	4.41596e-19
-0.203125 	-0.9375 	0.5 	40.0729 	-0.607466 	5.95567e-19
-0.1875 	-0.9375 	0.5 	40.0873 	-0.611199 	4.91037e-19
-0.171875 	-0.9375 	0.5 	40.1039 	-0.61509 	1.02995e-19
-0.15625 	-0.9375 	0.5 	40.1228 	-0.61653 	1.27456e-19
-0.140625 	-0.9375 	0.5 	40.1416 	-0.619101 	4.22266e-20
-0.125 	-0.9375 	0.5 	40.159 	-0.620254 	2.4867e-19
-0.109375 	-0.9375 	0.5 	40.177 	-0.62026 	2.60878e-19
-0.09375 	-0.9375 	0.5 	40.1941 	-0.622287 	5.2913e-20
-0.078125 	-0.9375 	0.5 	40.2097 	-0.621835 	1.32144e-19
-0.0625 	-0.9375 	0.5 	40.2282 	-0.619571 	-1.8797e-19
-0.046875 	-0.9375 	0.5 	40.247 	-0.619308 	-4.58412e-19
-0.03125 	-0.9375 	0.5 	40.2685 	-0.613975 	-7.58854e-19
-0.015625 	-0.9375 	0.5 	40.2872 	-0.612575 	-1.00539e-19
0 	-0.9375 	0.5 	40.3071 	-0.610306 	2.63572e-19