-0.5 	-1 	0.5 	39.8876 	-0.12424 	-6.61881e-20
-0.484375 	-1 	0.5 	39.8904 	-0.127272 	5.4888e-20
-0.46875 	-1 	0.5 	39.8932 	-0.130905 	2.52669e-19
-0.453125 	-1 	0.5 	39.8962 	-0.133315 	1.48267e-19
-0.4375 	-1 	0.5 	39.8996 	-0.137345 	2.86504e-19
-0.421875 	-1 	0.5 	39.9024 	-0.141044 	3.00466e-19
-0.40625 	-1 	0.5 	39.9063 	-0.144176 	6.49928e-19
-0.390625 	-1 	0.5 	39.9103 	-0.14723 	1.80485e-19
-0.375 	-1 	0.5 	39.914 	-0.150189 	-3.15414e-20
-0.359375 	-1 	0.5 	39.9179 	-0.153165 	3.46806e-19
-0.34375 	-1 	0.5 	39.922 	-0.155663 	7.80037e-19
-0.328125 	-1 	0.5 	39.9264 	-0.159051 	7.26164e-19
-0.3125 	-1 	0.5 	39.9309 	-0.161609 	1.50375e-18
-0.296875 	-1 	0.5 	39.9356 	-0.163013 	2.42189e-18
-0.28125 	-1 	0.5 	39.9408 	-0.166043 	1.01314e-18
-0.265625 	-1 	0.5 	39.9457 	-0.168334 	1.18304e-19
-0.25 	-1 	0.5 	39.9508 	-0.169895 	6.37958e-19
-0.234375 	-1 	0.5 	39.9561 	-0.17212 	1.52596e-18
-0.21875 	-1 	0.5 	39.9612 	-0.171919 	4.64043e-19
-0.203125 	-1 	0.5 	39.9675 	-0.173804 	6.28686e-19
-0.1875 	-1 	0.5 	39.9726 	-0.175125 	1.98768e-19
-0.171875 	-1 	0.5 	39.9787 	-0.17691 	4.28089e-19
-0.15625 	-1 	0.5 	39.9846 	-0.177111 	7.77409e-19
-0.140625 	-1 	0.5 	39.9904 	-0.177083 	2.11441e-19
-0.125 	-1 	0.5 	39.9963 	-0.177115 	-2.92284e-19
-0.109375 	-1 	0.5 	40.0023 	-0.176905 	-9.80173e-19
-0.09375 	-1 	0.5 	40.0085 	-0.176693 	-1.61627e-18
-0.078125 	-1 	0.5 	40.0148 	-0.176576 	-9.6372e-19
-0.0625 	-1 	0.5 	40.0209 	-0.175904 	6.22076e-19
-0.046875 	-1 	0.5 	40.0271 	-0.174565 	6.09514e-19
-0.03125 	-1 	0.5 	40.0336 	-0.173163 	2.12491e-19
-0.015625 	-1 	0.5 	40.0399 	-0.171505 	4.23416e-20
0 	-1 	0.5 	40.046 	-0.169399 	2.43553e-19
0.015625 	-1 	0.5 	40.0521 	-0.167293 	4.44764e-19
0.03125 	-1 	0.5 	40.0578 	-0.164705 	-3.37441e-19
0.046875 	-1 	0.5 	40.0643 	-0.161098 	-7.43883e-19
0.0625 	-1 	0.5 	40.0701 	-0.158142 	-1.6867e-19
0.078125 	-1 	0.5 	40.0758 	-0.155109 	-1.17692e-19
0.09375 	-1 	0.5 	40.0809 	-0.151443 	-1.07108e-19
0.109375 	-1 	0.5 	40.0871 	-0.147941 	-2.97345e-19
0.125 	-1 	0.5 	40.0924 	-0.14433 	-9.86156e-20
0.140625 	-1 	0.5 	40.0979 	-0.139605 	1.45257e-20
0.15625 	-1 	0.5 	40.1021 	-0.134257 	7.53643e-20
0.171875 	-1 	0.5 	40.1074 	-0.129796 	4.31284e-19
0.1875 	-1 	0.5 	40.1121 	-0.124158 	7.95945e-20
0.203125 	-1 	0.5 	40.1164 	-0.119017 	-4.4102e-19
0.21875 	-1 	0.5 	40.1203 	-0.113659 	-2.45765e-19
0.234375 	-1 	0.5 	40.1244 	-0.108085 	-1.06933e-19
0.25 	-1 	0.5 	40.128 	-0.102169 	3.86597e-19
0.265625 	-1 	0.5 	40.1312 	-0.0959155 	1.88853e-19
0.28125 	-1 	0.5 	40.135 	-0.0900458 	8.46201e-20
0.296875 	-1 	0.5 	40.1366 	-0.0824174 	-4.17197e-19
0.3125 	-1 	0.5 	40.1387 	-0.0767844 	-5.22644e-20
0.328125 	-1 	0.5 	40.1406 	-0.0700044 	-1.08568e-20
0.34375 	-1 	0.5 	40.1423 	-0.0633688 	-8.74584e-20
0.359375 	-1 	0.5 	40.1439 	-0.0573031 	-5.74548e-20
0.375 	-1 	0.5 	40.1452 	-0.0500137 	1.96645e-19
0.390625 	-1 	0.5 	40.1464 	-0.0433676 	1.55745e-19
0.40625 	-1 	0.5 	40.1467 	-0.0374143 	-1.07901e-19
0.421875 	-1 	0.5 	40.1472 	-0.0304869 	-8.58786e-20
0.4375 	-1 	0.5 	40.1467 	-0.0232034 	-5.64469e-19
0.453125 	-1 	0.5 	40.1458 	-0.0172088 	2.09121e-19
0.46875 	-1 	0.5 	40.1461 	-0.0103548 	3.51613e-19
0.484375 	-1 	0.5 	40.1449 	-0.00196868 	1.1023e-18
0.5 	-1 	0.5 	40.1436 	0.00359628 	3.10833e-19
0.515625 	-1 	0.5 	40.1419 	0.00997216 	1.40867e-20
0.53125 	-1 	0.5 	40.1401 	0.0159091 	5.37021e-21
0.546875 	-1 	0.5 	40.1381 	0.0217947 	1.51585e-20
0.5625 	-1 	0.5 	40.1359 	0.0265423 	9.7939e-21
0.578125 	-1 	0.5 	40.1336 	0.0329487 	9.02284e-20
0.59375 	-1 	0.5 	40.1311 	0.0392854 	1.2827e-19
0.609375 	-1 	0.5 	40.1283 	0.0448196 	1.43292e-19
0.625 	-1 	0.5 	40.1256 	0.0503538 	1.58315e-19
0.640625 	-1 	0.5 	40.1221 	0.0557997 	2.66341e-19
0.65625 	-1 	0.5 	40.1178 	0.0602973 	1.80957e-19
0.671875 	-1 	0.5 	40.1131 	0.0651042 	2.34105e-19
0.6875 	-1 	0.5 	40.1085 	0.0698554 	2.69236e-19
0.703125 	-1 	0.5 	40.1053 	0.0734691 	1.11875e-19
0.71875 	-1 	0.5 	40.1008 	0.0769251 	1.39762e-19
0.734375 	-1 	0.5 	40.0962 	0.080278 	5.79872e-20
0.75 	-1 	0.5 	40.0915 	0.0839706 	5.04084e-20
0.765625 	-1 	0.5 	40.0863 	0.0873542 	1.23464e-19
0.78125 	-1 	0.5 	40.0818 	0.0900811 	1.63828e-20
0.796875 	-1 	0.5 	40.0772 	0.092728 	1.63915e-20
0.8125 	-1 	0.5 	40.0724 	0.0954403 	5.34019e-20
0.828125 	-1 	0.5 	40.067 	0.0974481 	1.15833e-19
0.84375 	-1 	0.5 	40.0616 	0.099535 	1.49528e-19
0.859375 	-1 	0.5 	40.057 	0.101501 	7.48531e-19
0.875 	-1 	0.5 	40.0523 	0.102954 	3.29689e-19
0.890625 	-1 	0.5 	40.0475 	0.104647 	-3.06146e-19
0.90625 	-1 	0.5 	40.0421 	0.105797 	-2.70612e-19
0.921875 	-1 	0.5 	40.0365 	0.107093 	-1.51323e-19
0.9375 	-1 	0.5 	40.0319 	0.108228 	-5.43834e-19
0.953125 	-1 	0.5 	40.0287 	0.10806 	2.10153e-19
0.96875 	-1 	0.5 	40.0236 	0.107984 	-7.82816e-20
0.984375 	-1 	0.5 	40.0189 	0.10788 	5.0295e-20
1 	-1 	0.5 	40.0138 	0.108044 	4.63779e-20
1.01562 	-1 	0.5 	40.009 	0.107926 	-2.16887e-20
1.03125 	-1 	0.5 	40.0044 	0.107718 	-1.99325e-20
1.04688 	-1 	0.5 	40 	0.107027 	4.96318e-19
1.0625 	-1 	0.5 	39.9958 	0.106307 	1.56786e-18
1.07812 	-1 	0.5 	39.9916 	0.105366 	3.2155e-19
1.09375 	-1 	0.5 	39.9875 	0.103958 	7.79215e-19
1.10938 	-1 	0.5 	39.9834 	0.10263 	-1.10097e-19
1.125 	-1 	0.5 	39.9796 	0.101266 	1.96406e-19
1.14062 	-1 	0.5 	39.9761 	0.099554 	1.18296e-20
1.15625 	-1 	0.5 	39.9726 	0.0979269 	-1.82504e-19
1.17188 	-1 	0.5 	39.9691 	0.09594 	-1.32511e-19
1.1875 	-1 	0.5 	39.9656 	0.0943259 	-5.85832e-19
1.20312 	-1 	0.5 	39.9622 	0.0921705 	5.66627e-20
1.21875 	-1 	0.5 	39.9593 	0.0904276 	2.47843e-19
1.23438 	-1 	0.5 	39.9565 	0.0878466 	9.66199e-19
1.25 	-1 	0.5 	39.9537 	0.0855668 	9.87427e-19
1.26562 	-1 	0.5 	39.9511 	0.0837373 	1.53772e-19
1.28125 	-1 	0.5 	39.9488 	0.0813434 	-1.95477e-20
1.29688 	-1 	0.5 	39.9467 	0.0781241 	-6.27156e-19
1.3125 	-1 	0.5 	39.9441 	0.0759484 	-5.958e-19
1.32812 	-1 	0.5 	39.9415 	0.0738956 	-4.89244e-19
1.34375 	-1 	0.5 	39.9393 	0.0717289 	-3.78616e-19
1.35938 	-1 	0.5 	39.9374 	0.0693102 	-2.14377e-19
1.375 	-1 	0.5 	39.9355 	0.0668914 	-5.01375e-20
1.39062 	-1 	0.5 	39.9338 	0.0641432 	-3.35584e-21
1.40625 	-1 	0.5 	39.9323 	0.0615843 	6.406e-19
1.42188 	-1 	0.5 	39.9309 	0.0589879 	6.30187e-19
1.4375 	-1 	0.5 	39.9296 	0.0562765 	1.12915e-19
1.45312 	-1 	0.5 	39.9284 	0.0537283 	-3.58596e-20
1.46875 	-1 	0.5 	39.9272 	0.0510857 	-1.50839e-18
1.48438 	-1 	0.5 	39.926 	0.0484115 	-2.81061e-18
-0.5 	-0.984375 	0.5 	39.8837 	-0.126473 	-7.63683e-19
-0.484375 	-0.984375 	0.5 	39.887 	-0.130396 	-7.1951e-20
-0.46875 	-0.984375 	0.5 	39.89 	-0.133708 	2.12664e-19
-0.453125 	-0.984375 	0.5 	39.8927 	-0.13746 	1.86535e-19
-0.4375 	-0.984375 	0.5 	39.8951 	-0.141293 	7.23895e-20
-0.421875 	-0.984375 	0.5 	39.8986 	-0.144802 	2.62997e-19
-0.40625 	-0.984375 	0.5 	39.9023 	-0.147977 	1.60194e-18
-0.390625 	-0.984375 	0.5 	39.9064 	-0.151096 	1.08263e-18
-0.375 	-0.984375 	0.5 	39.9105 	-0.154398 	2.7688e-19
-0.359375 	-0.984375 	0.5 	39.9153 	-0.157678 	1.18454e-19
-0.34375 	-0.984375 	0.5 	39.9196 	-0.160523 	4.90513e-19
-0.328125 	-0.984375 	0.5 	39.9239 	-0.163469 	6.7865e-19
-0.3125 	-0.984375 	0.5 	39.9285 	-0.166149 	1.36461e-18
-0.296875 	-0.984375 	0.5 	39.9334 	-0.168352 	1.14025e-18
-0.28125 	-0.984375 	0.5 	39.9384 	-0.171115 	2.0569e-19
-0.265625 	-0.984375 	0.5 	39.9431 	-0.173951 	1.29174e-19
-0.25 	-0.984375 	0.5 	39.949 	-0.174894 	2.54925e-20
-0.234375 	-0.984375 	0.5 	39.9545 	-0.17744 	1.40729e-18
-0.21875 	-0.984375 	0.5 	39.9596 	-0.178007 	9.62968e-19
-0.203125 	-0.984375 	0.5 	39.9655 	-0.178872 	4.25747e-19
-0.1875 	-0.984375 	0.5 	39.9713 	-0.181082 	-7.0796e-19
-0.171875 	-0.984375 	0.5 	39.9777 	-0.182956 	-2.85985e-19
-0.15625 	-0.984375 	0.5 	39.9835 	-0.183637 	1.45687e-18
-0.140625 	-0.984375 	0.5 	39.9894 	-0.183461 	3.01327e-19
-0.125 	-0.984375 	0.5 	39.9958 	-0.183607 	-6.33884e-19
-0.109375 	-0.984375 	0.5 	40.002 	-0.183795 	6.21411e-19
-0.09375 	-0.984375 	0.5 	40.0086 	-0.183202 	3.58216e-19
-0.078125 	-0.984375 	0.5 	40.0151 	-0.182642 	-2.52791e-19
-0.0625 	-0.984375 	0.5 	40.0213 	-0.182053 	3.92468e-20
-0.046875 	-0.984375 	0.5 	40.0281 	-0.180917 	-3.94666e-19
-0.03125 	-0.984375 	0.5 	40.035 	-0.179873 	-7.27799e-19
-0.015625 	-0.984375 	0.5 	40.0416 	-0.177964 	1.79352e-19
0 	-0.984375 	0.5 	40.0481 	-0.175616 	-4.62074e-20
0.015625 	-0.984375 	0.5 	40.0544 	-0.173569 	3.01398e-19
0.03125 	-0.984375 	0.5 	40.0603 	-0.170795 	-4.50205e-19
0.046875 	-0.984375 	0.5 	40.0668 	-0.167247 	-7.32174e-19
0.0625 	-0.984375 	0.5 	40.0726 	-0.164079 	-2.03631e-19
0.078125 	-0.984375 	0.5 	40.079 	-0.160866 	2.94016e-19
0.09375 	-0.984375 	0.5 	40.0853 	-0.156939 	-2.65572e-19
0.109375 	-0.984375 	0.5 	40.0917 	-0.153402 	-4.83645e-19
0.125 	-0.984375 	0.5 	40.0965 	-0.149655 	-1.14047e-19
0.140625 	-0.984375 	0.5 	40.1021 	-0.144916 	-1.17201e-20
0.15625 	-0.984375 	0.5 	40.1077 	-0.139841 	3.57333e-20
0.171875 	-0.984375 	0.5 	40.1123 	-0.134002 	1.92992e-19
0.1875 	-0.984375 	0.5 	40.1169 	-0.128137 	3.24672e-19
0.203125 	-0.984375 	0.5 	40.1213 	-0.122851 	-1.7227e-19
0.21875 	-0.984375 	0.5 	40.1255 	-0.117291 	-2.29908e-19
0.234375 	-0.984375 	0.5 	40.1296 	-0.111722 	-1.60157e-19
0.25 	-0.984375 	0.5 	40.1335 	-0.105863 	-3.68332e-20
0.265625 	-0.984375 	0.5 	40.1373 	-0.0997188 	-1.07163e-19
0.28125 	-0.984375 	0.5 	40.1411 	-0.0935791 	-1.53193e-19
0.296875 	-0.984375 	0.5 	40.1435 	-0.0859904 	-9.94076e-20
0.3125 	-0.984375 	0.5 	40.1452 	-0.0786836 	-2.75725e-20
0.328125 	-0.984375 	0.5 	40.1472 	-0.0724522 	-1.73309e-20
0.34375 	-0.984375 	0.5 	40.1492 	-0.0638633 	6.74236e-20
0.359375 	-0.984375 	0.5 	40.1509 	-0.0571591 	1.42507e-19
0.375 	-0.984375 	0.5 	40.1512 	-0.0507365 	2.80091e-20
0.390625 	-0.984375 	0.5 	40.1524 	-0.0441239 	-2.45801e-20
0.40625 	-0.984375 	0.5 	40.1539 	-0.0375583 	-7.39734e-20
0.421875 	-0.984375 	0.5 	40.1536 	-0.0307656 	-2.6536e-20
0.4375 	-0.984375 	0.5 	40.153 	-0.0234871 	7.80753e-21
0.453125 	-0.984375 	0.5 	40.1532 	-0.0168734 	3.65188e-19
0.46875 	-0.984375 	0.5 	40.1533 	-0.00985831 	3.84104e-19
0.484375 	-0.984375 	0.5 	40.1519 	-0.00223637 	-6.73571e-19
0.5 	-0.984375 	0.5 	40.1502 	0.00439684 	-3.73289e-19
0.515625 	-0.984375 	0.5 	40.1482 	0.011569 	1.01693e-19
0.53125 	-0.984375 	0.5 	40.1464 	0.0180386 	-4.38413e-23
0.546875 	-0.984375 	0.5 	40.1441 	0.0240613 	-4.89764e-21
0.5625 	-0.984375 	0.5 	40.1418 	0.0299735 	2.44525e-19
0.578125 	-0.984375 	0.5 	40.1393 	0.0360067 	6.28123e-19
0.59375 	-0.984375 	0.5 	40.1366 	0.0427099 	3.70029e-20
0.609375 	-0.984375 	0.5 	40.1338 	0.0482172 	5.84659e-20
0.625 	-0.984375 	0.5 	40.13 	0.052951 	8.26866e-20
0.640625 	-0.984375 	0.5 	40.1257 	0.0579338 	1.95921e-19
0.65625 	-0.984375 	0.5 	40.1217 	0.0647039 	3.76088e-19
0.671875 	-0.984375 	0.5 	40.1173 	0.069226 	4.1719e-19
0.6875 	-0.984375 	0.5 	40.1137 	0.0732555 	-5.01644e-20
0.703125 	-0.984375 	0.5 	40.109 	0.078049 	-8.79351e-20
0.71875 	-0.984375 	0.5 	40.1041 	0.0815113 	2.42509e-21
0.734375 	-0.984375 	0.5 	40.0995 	0.0849119 	-1.59232e-20
0.75 	-0.984375 	0.5 	40.0947 	0.0889974 	-9.01354e-21
0.765625 	-0.984375 	0.5 	40.0892 	0.0906189 	3.74508e-20
0.78125 	-0.984375 	0.5 	40.0844 	0.0950622 	1.21365e-19
0.796875 	-0.984375 	0.5 	40.0797 	0.0976802 	7.06278e-20
0.8125 	-0.984375 	0.5 	40.0746 	0.100658 	5.909e-20
0.828125 	-0.984375 	0.5 	40.0689 	0.103295 	7.44363e-19
0.84375 	-0.984375 	0.5 	40.0636 	0.104765 	4.26413e-19
0.859375 	-0.984375 	0.5 	40.0587 	0.106576 	2.91455e-19
0.875 	-0.984375 	0.5 	40.0539 	0.108887 	3.26843e-20
0.890625 	-0.984375 	0.5 	40.0487 	0.110032 	-1.62189e-19
0.90625 	-0.984375 	0.5 	40.0438 	0.111701 	-1.19682e-18
0.921875 	-0.984375 	0.5 	40.0383 	0.112143 	-7.79896e-19
0.9375 	-0.984375 	0.5 	40.0328 	0.112584 	-3.62967e-19
0.953125 	-0.984375 	0.5 	40.0279 	0.112712 	-2.11024e-19
0.96875 	-0.984375 	0.5 	40.0231 	0.112691 	-9.40514e-20
0.984375 	-0.984375 	0.5 	40.0183 	0.112705 	1.79183e-20
1 	-0.984375 	0.5 	40.0132 	0.112909 	2.54299e-20
1.01562 	-0.984375 	0.5 	40.0084 	0.112451 	1.36551e-19
1.03125 	-0.984375 	0.5 	40.0035 	0.11229 	1.09675e-19
1.04688 	-0.984375 	0.5 	39.9988 	0.11121 	2.73716e-20
1.0625 	-0.984375 	0.5 	39.9945 	0.110367 	4.85492e-19
1.07812 	-0.984375 	0.5 	39.9904 	0.109399 	6.88566e-19
1.09375 	-0.984375 	0.5 	39.9863 	0.108044 	2.55961e-19
1.10938 	-0.984375 	0.5 	39.9821 	0.106896 	-5.6457e-19
1.125 	-0.984375 	0.5 	39.9779 	0.10498 	-1.25386e-19
1.14062 	-0.984375 	0.5 	39.9743 	0.103605 	-2.78604e-19
1.15625 	-0.984375 	0.5 	39.9706 	0.101751 	-1.56247e-19
1.17188 	-0.984375 	0.5 	39.9673 	0.0991799 	5.05776e-19
1.1875 	-0.984375 	0.5 	39.9639 	0.0970614 	5.71193e-19
1.20312 	-0.984375 	0.5 	39.9603 	0.0951511 	3.71348e-19
1.21875 	-0.984375 	0.5 	39.9572 	0.0930541 	3.85564e-19
1.23438 	-0.984375 	0.5 	39.9544 	0.09081 	3.22725e-19
1.25 	-0.984375 	0.5 	39.9516 	0.0885658 	2.59886e-19
1.26562 	-0.984375 	0.5 	39.9489 	0.0863216 	1.97047e-19
1.28125 	-0.984375 	0.5 	39.9462 	0.0838847 	3.23576e-20
1.29688 	-0.984375 	0.5 	39.9435 	0.081075 	-2.45276e-19
1.3125 	-0.984375 	0.5 	39.9408 	0.0782653 	-5.2291e-19
1.32812 	-0.984375 	0.5 	39.9385 	0.0763995 	-2.93729e-19
1.34375 	-0.984375 	0.5 	39.9363 	0.0737506 	-6.3311e-19
1.35938 	-0.984375 	0.5 	39.9347 	0.0705425 	-2.55571e-19
1.375 	-0.984375 	0.5 	39.9328 	0.0681689 	-7.52344e-20
1.39062 	-0.984375 	0.5 	39.931 	0.0655099 	3.32679e-21
1.40625 	-0.984375 	0.5 	39.9295 	0.0629812 	7.07498e-19
1.42188 	-0.984375 	0.5 	39.9282 	0.0602863 	2.62853e-19
1.4375 	-0.984375 	0.5 	39.9268 	0.057573 	-3.52209e-19
1.45312 	-0.984375 	0.5 	39.9254 	0.0548703 	-8.05004e-20
1.46875 	-0.984375 	0.5 	39.9245 	0.0520726 	-2.11994e-19
1.48438 	-0.984375 	0.5 	39.9235 	0.0493404 	-1.01385e-18
-0.5 	-0.96875 	0.5 	39.8797 	-0.129216 	-3.94928e-19
-0.484375 	-0.96875 	0.5 	39.883 	-0.133112 	2.4096e-19
-0.46875 	-0.96875 	0.5 	39.8859 	-0.13711 	2.31391e-19
-0.453125 	-0.96875 	0.5 	39.8893 	-0.141028 	2.82728e-19
-0.4375 	-0.96875 	0.5 	39.8919 	-0.144891 	1.85373e-19
-0.421875 	-0.96875 	0.5 	39.8949 	-0.14856 	2.25527e-19
-0.40625 	-0.96875 	0.5 	39.8986 	-0.151776 	1.02147e-18
-0.390625 	-0.96875 	0.5 	39.9028 	-0.155137 	3.24003e-19
-0.375 	-0.96875 	0.5 	39.9068 	-0.15885 	3.33781e-19
-0.359375 	-0.96875 	0.5 	39.9114 	-0.161753 	-7.28769e-19
-0.34375 	-0.96875 	0.5 	39.9166 	-0.165063 	-5.41343e-19
-0.328125 	-0.96875 	0.5 	39.9216 	-0.168573 	2.55293e-19
-0.3125 	-0.96875 	0.5 	39.9262 	-0.171203 	4.90577e-19
-0.296875 	-0.96875 	0.5 	39.9307 	-0.173719 	1.46779e-19
-0.28125 	-0.96875 	0.5 	39.9351 	-0.176136 	3.72651e-20
-0.265625 	-0.96875 	0.5 	39.9403 	-0.179419 	-3.90941e-21
-0.25 	-0.96875 	0.5 	39.9459 	-0.180897 	-8.23666e-19
-0.234375 	-0.96875 	0.5 	39.9518 	-0.18169 	-6.40235e-19
-0.21875 	-0.96875 	0.5 	39.9578 	-0.182517 	1.04056e-19
-0.203125 	-0.96875 	0.5 	39.9635 	-0.184123 	-1.22566e-19
-0.1875 	-0.96875 	0.5 	39.97 	-0.186537 	-5.9149e-19
-0.171875 	-0.96875 	0.5 	39.9765 	-0.188783 	-7.82935e-19
-0.15625 	-0.96875 	0.5 	39.9825 	-0.189791 	6.55575e-19
-0.140625 	-0.96875 	0.5 	39.9888 	-0.189823 	-5.07992e-19
-0.125 	-0.96875 	0.5 	39.9954 	-0.190238 	-8.92579e-19
-0.109375 	-0.96875 	0.5 	40.002 	-0.190916 	1.33233e-19
-0.09375 	-0.96875 	0.5 	40.0083 	-0.190395 	5.57492e-19
-0.078125 	-0.96875 	0.5 	40.0152 	-0.189539 	-4.94937e-20
-0.0625 	-0.96875 	0.5 	40.0224 	-0.188878 	6.16787e-20
-0.046875 	-0.96875 	0.5 	40.0292 	-0.187555 	-2.98818e-19
-0.03125 	-0.96875 	0.5 	40.0362 	-0.186526 	-6.82063e-19
-0.015625 	-0.96875 	0.5 	40.0428 	-0.18456 	1.89801e-19
0 	-0.96875 	0.5 	40.0497 	-0.182165 	2.48042e-19
0.015625 	-0.96875 	0.5 	40.0562 	-0.179817 	1.88083e-20
0.03125 	-0.96875 	0.5 	40.0627 	-0.177192 	-1.24092e-19
0.046875 	-0.96875 	0.5 	40.0694 	-0.174138 	-6.61224e-20
0.0625 	-0.96875 	0.5 	40.0761 	-0.171058 	-8.87195e-21
0.078125 	-0.96875 	0.5 	40.0825 	-0.167665 	7.84866e-19
0.09375 	-0.96875 	0.5 	40.0887 	-0.163351 	1.07198e-18
0.109375 	-0.96875 	0.5 	40.095 	-0.158785 	-2.23732e-19
0.125 	-0.96875 	0.5 	40.1006 	-0.154852 	-1.59044e-19
0.140625 	-0.96875 	0.5 	40.1065 	-0.150438 	-7.08202e-19
0.15625 	-0.96875 	0.5 	40.1123 	-0.145092 	-4.12132e-19
0.171875 	-0.96875 	0.5 	40.1183 	-0.140503 	7.87784e-19
0.1875 	-0.96875 	0.5 	40.1219 	-0.133285 	-8.60695e-21
0.203125 	-0.96875 	0.5 	40.127 	-0.127238 	-1.23332e-19
0.21875 	-0.96875 	0.5 	40.1313 	-0.12216 	-1.85947e-19
0.234375 	-0.96875 	0.5 	40.1355 	-0.1163 	-6.49332e-20
0.25 	-0.96875 	0.5 	40.14 	-0.108903 	-5.87905e-20
0.265625 	-0.96875 	0.5 	40.144 	-0.10411 	-1.52436e-19
0.28125 	-0.96875 	0.5 	40.1474 	-0.0961719 	-8.0651e-20
0.296875 	-0.96875 	0.5 	40.1498 	-0.0890188 	-8.57986e-20
0.3125 	-0.96875 	0.5 	40.1519 	-0.0812472 	-8.17154e-20
0.328125 	-0.96875 	0.5 	40.1539 	-0.0739148 	-2.85451e-20
0.34375 	-0.96875 	0.5 	40.1558 	-0.0660475 	2.29671e-19
0.359375 	-0.96875 	0.5 	40.1578 	-0.0583196 	-8.62501e-21
0.375 	-0.96875 	0.5 	40.159 	-0.0509435 	6.77018e-19
0.390625 	-0.96875 	0.5 	40.1601 	-0.044515 	4.81033e-19
0.40625 	-0.96875 	0.5 	40.1608 	-0.0378621 	-4.94743e-19
0.421875 	-0.96875 	0.5 	40.1604 	-0.0301287 	5.20346e-20
0.4375 	-0.96875 	0.5 	40.1602 	-0.0228536 	9.77823e-20
0.453125 	-0.96875 	0.5 	40.16 	-0.0161608 	5.70252e-19
0.46875 	-0.96875 	0.5 	40.1598 	-0.00832656 	-5.08039e-19
0.484375 	-0.96875 	0.5 	40.1584 	-0.00160748 	-1.32488e-19
0.5 	-0.96875 	0.5 	40.1564 	0.00535916 	2.69613e-19
0.515625 	-0.96875 	0.5 	40.1545 	0.0128338 	3.02926e-19
0.53125 	-0.96875 	0.5 	40.1526 	0.0196571 	3.10074e-20
0.546875 	-0.96875 	0.5 	40.1507 	0.0266334 	-2.35687e-20
0.5625 	-0.96875 	0.5 	40.1478 	0.0335258 	-4.89455e-19
0.578125 	-0.96875 	0.5 	40.1446 	0.0398779 	7.44378e-20
0.59375 	-0.96875 	0.5 	40.1419 	0.0459553 	-1.13784e-20
0.609375 	-0.96875 	0.5 	40.1379 	0.0505666 	-8.71233e-21
0.625 	-0.96875 	0.5 	40.1345 	0.0565966 	6.31523e-20
0.640625 	-0.96875 	0.5 	40.1297 	0.0607726 	1.62967e-19
0.65625 	-0.96875 	0.5 	40.1265 	0.0684924 	-1.58376e-19
0.671875 	-0.96875 	0.5 	40.1222 	0.0729262 	-4.37765e-19
0.6875 	-0.96875 	0.5 	40.118 	0.0779286 	-3.31023e-19
0.703125 	-0.96875 	0.5 	40.1125 	0.0820083 	-3.06684e-19
0.71875 	-0.96875 	0.5 	40.1082 	0.0860497 	-9.29056e-19
0.734375 	-0.96875 	0.5 	40.1028 	0.0900948 	-3.04352e-19
0.75 	-0.96875 	0.5 	40.0978 	0.0935815 	-6.83876e-20
0.765625 	-0.96875 	0.5 	40.0926 	0.097138 	1.69098e-19
0.78125 	-0.96875 	0.5 	40.0872 	0.100553 	2.78355e-19
0.796875 	-0.96875 	0.5 	40.082 	0.103149 	1.07585e-19
0.8125 	-0.96875 	0.5 	40.0767 	0.105899 	9.4729e-20
0.828125 	-0.96875 	0.5 	40.0712 	0.108331 	9.73035e-20
0.84375 	-0.96875 	0.5 	40.0653 	0.110934 	-1.20023e-19
0.859375 	-0.96875 	0.5 	40.06 	0.112175 	7.7385e-19
0.875 	-0.96875 	0.5 	40.0548 	0.113739 	2.05801e-19
0.890625 	-0.96875 	0.5 	40.0497 	0.115316 	-1.27386e-20
0.90625 	-0.96875 	0.5 	40.0446 	0.116476 	-4.53243e-19
0.921875 	-0.96875 	0.5 	40.0388 	0.116834 	7.72118e-20
0.9375 	-0.96875 	0.5 	40.0334 	0.118043 	-1.26534e-19
0.953125 	-0.96875 	0.5 	40.0277 	0.118409 	-5.01915e-19
0.96875 	-0.96875 	0.5 	40.0227 	0.118563 	-7.64772e-19
0.984375 	-0.96875 	0.5 	40.0177 	0.118338 	-4.54775e-19
1 	-0.96875 	0.5 	40.0126 	0.117831 	-6.84524e-20
1.01562 	-0.96875 	0.5 	40.0076 	0.11742 	8.22386e-20
1.03125 	-0.96875 	0.5 	40.0027 	0.116976 	1.86901e-19
1.04688 	-0.96875 	0.5 	39.9981 	0.116138 	2.86063e-19
1.0625 	-0.96875 	0.5 	39.9933 	0.115037 	5.79624e-19
1.07812 	-0.96875 	0.5 	39.9889 	0.113632 	5.58198e-19
1.09375 	-0.96875 	0.5 	39.9846 	0.112579 	-7.43318e-19
1.10938 	-0.96875 	0.5 	39.9803 	0.111171 	-5.56473e-19
1.125 	-0.96875 	0.5 	39.9763 	0.108816 	-4.97619e-20
1.14062 	-0.96875 	0.5 	39.9723 	0.106968 	9.65552e-21
1.15625 	-0.96875 	0.5 	39.9685 	0.105415 	-3.66524e-20
1.17188 	-0.96875 	0.5 	39.965 	0.103153 	2.27079e-19
1.1875 	-0.96875 	0.5 	39.9614 	0.100333 	4.83579e-19
1.20312 	-0.96875 	0.5 	39.9576 	0.0986845 	2.31033e-19
1.21875 	-0.96875 	0.5 	39.9544 	0.0962148 	3.18391e-19
1.23438 	-0.96875 	0.5 	39.9509 	0.0945111 	1.05438e-19
1.25 	-0.96875 	0.5 	39.948 	0.0924791 	2.86679e-20
1.26562 	-0.96875 	0.5 	39.9457 	0.0894894 	7.26049e-20
1.28125 	-0.96875 	0.5 	39.9429 	0.0866129 	2.53207e-19
1.29688 	-0.96875 	0.5 	39.9404 	0.0831758 	-2.40117e-19
1.3125 	-0.96875 	0.5 	39.9379 	0.0809026 	-2.37207e-19
1.32812 	-0.96875 	0.5 	39.9354 	0.0785941 	-1.36712e-19
1.34375 	-0.96875 	0.5 	39.9332 	0.075656 	-4.02009e-19
1.35938 	-0.96875 	0.5 	39.9315 	0.073101 	-7.34857e-19
1.375 	-0.96875 	0.5 	39.93 	0.0697477 	-2.97894e-19
1.39062 	-0.96875 	0.5 	39.9283 	0.0668765 	1.00094e-20
1.40625 	-0.96875 	0.5 	39.9268 	0.0641958 	-3.72983e-20
1.42188 	-0.96875 	0.5 	39.9252 	0.061508 	-6.39744e-19
1.4375 	-0.96875 	0.5 	39.9237 	0.0587911 	-8.64224e-19
1.45312 	-0.96875 	0.5 	39.9223 	0.056042 	-5.1887e-20
1.46875 	-0.96875 	0.5 	39.9212 	0.0535331 	-2.27512e-20
1.48438 	-0.96875 	0.5 	39.9205 	0.0506035 	-2.27534e-19
-0.5 	-0.953125 	0.5 	39.8755 	-0.132324 	5.41092e-19
-0.484375 	-0.953125 	0.5 	39.8782 	-0.136579 	1.32143e-18
-0.46875 	-0.953125 	0.5 	39.8812 	-0.140366 	5.33995e-19
-0.453125 	-0.953125 	0.5 	39.884 	-0.143846 	5.15713e-19
-0.4375 	-0.953125 	0.5 	39.8876 	-0.147892 	4.73698e-19
-0.421875 	-0.953125 	0.5 	39.8913 	-0.15205 	3.50263e-19
-0.40625 	-0.953125 	0.5 	39.895 	-0.155875 	3.71126e-19
-0.390625 	-0.953125 	0.5 	39.899 	-0.15962 	4.20427e-19
-0.375 	-0.953125 	0.5 	39.903 	-0.16321 	2.76508e-19
-0.359375 	-0.953125 	0.5 	39.9075 	-0.166218 	-6.27381e-19
-0.34375 	-0.953125 	0.5 	39.9127 	-0.169264 	-1.08367e-18
-0.328125 	-0.953125 	0.5 	39.9178 	-0.172935 	-1.4937e-20
-0.3125 	-0.953125 	0.5 	39.9229 	-0.176504 	1.74e-19
-0.296875 	-0.953125 	0.5 	39.9281 	-0.179509 	6.09134e-20
-0.28125 	-0.953125 	0.5 	39.9328 	-0.182242 	-4.54748e-20
-0.265625 	-0.953125 	0.5 	39.9374 	-0.184887 	-1.36993e-19
-0.25 	-0.953125 	0.5 	39.9429 	-0.18696 	-7.15553e-19
-0.234375 	-0.953125 	0.5 	39.9489 	-0.187773 	-1.98672e-19
-0.21875 	-0.953125 	0.5 	39.9552 	-0.189438 	3.33532e-19
-0.203125 	-0.953125 	0.5 	39.9617 	-0.190674 	9.57782e-21
-0.1875 	-0.953125 	0.5 	39.968 	-0.192463 	-2.12744e-19
-0.171875 	-0.953125 	0.5 	39.9746 	-0.194502 	-1.29067e-19
-0.15625 	-0.953125 	0.5 	39.9816 	-0.196374 	9.5564e-20
-0.140625 	-0.953125 	0.5 	39.9885 	-0.196969 	2.76186e-19
-0.125 	-0.953125 	0.5 	39.9951 	-0.197381 	1.54606e-19
-0.109375 	-0.953125 	0.5 	40.0018 	-0.197797 	3.00691e-20
-0.09375 	-0.953125 	0.5 	40.0088 	-0.197221 	2.30424e-20
-0.078125 	-0.953125 	0.5 	40.016 	-0.19632 	5.68463e-21
-0.0625 	-0.953125 	0.5 	40.0229 	-0.196181 	5.58662e-20
-0.046875 	-0.953125 	0.5 	40.0304 	-0.194531 	2.33928e-19
-0.03125 	-0.953125 	0.5 	40.0371 	-0.193065 	-2.89349e-20
-0.015625 	-0.953125 	0.5 	40.0438 	-0.191226 	-1.18956e-19
0 	-0.953125 	0.5 	40.0509 	-0.189332 	-3.28814e-19
0.015625 	-0.953125 	0.5 	40.0581 	-0.187212 	-2.326e-19
0.03125 	-0.953125 	0.5 	40.0653 	-0.18391 	-6.13954e-20
0.046875 	-0.953125 	0.5 	40.073 	-0.180983 	4.14844e-20
0.0625 	-0.953125 	0.5 	40.0797 	-0.177942 	9.9823e-20
0.078125 	-0.953125 	0.5 	40.086 	-0.174463 	1.27572e-18
0.09375 	-0.953125 	0.5 	40.0923 	-0.169933 	6.60394e-19
0.109375 	-0.953125 	0.5 	40.0986 	-0.165557 	-7.50507e-19
0.125 	-0.953125 	0.5 	40.1052 	-0.160104 	2.3964e-19
0.140625 	-0.953125 	0.5 	40.111 	-0.155263 	-7.80914e-19
0.15625 	-0.953125 	0.5 	40.1169 	-0.15031 	-8.4241e-19
0.171875 	-0.953125 	0.5 	40.1223 	-0.144701 	2.45495e-19
0.1875 	-0.953125 	0.5 	40.1279 	-0.138453 	-9.74939e-19
0.203125 	-0.953125 	0.5 	40.1331 	-0.132399 	-5.8522e-19
0.21875 	-0.953125 	0.5 	40.1373 	-0.12666 	-1.06463e-19
0.234375 	-0.953125 	0.5 	40.1414 	-0.119963 	-2.36377e-19
0.25 	-0.953125 	0.5 	40.1461 	-0.11238 	-1.74067e-19
0.265625 	-0.953125 	0.5 	40.1506 	-0.105949 	-8.4148e-20
0.28125 	-0.953125 	0.5 	40.1533 	-0.098926 	-1.84847e-20
0.296875 	-0.953125 	0.5 	40.1558 	-0.0910942 	-8.42355e-20
0.3125 	-0.953125 	0.5 	40.159 	-0.0840835 	-1.43746e-19
0.328125 	-0.953125 	0.5 	40.1609 	-0.0762191 	5.20532e-20
0.34375 	-0.953125 	0.5 	40.1628 	-0.0688703 	4.71189e-19
0.359375 	-0.953125 	0.5 	40.1649 	-0.0617817 	-5.38557e-19
0.375 	-0.953125 	0.5 	40.1663 	-0.0536435 	-2.53917e-19
0.390625 	-0.953125 	0.5 	40.1674 	-0.0461262 	-2.26176e-19
0.40625 	-0.953125 	0.5 	40.1675 	-0.0380883 	-1.05501e-18
0.421875 	-0.953125 	0.5 	40.1679 	-0.0306934 	-1.27713e-20
0.4375 	-0.953125 	0.5 	40.1668 	-0.022666 	1.71436e-19
0.453125 	-0.953125 	0.5 	40.1663 	-0.0147408 	3.52773e-19
0.46875 	-0.953125 	0.5 	40.1663 	-0.00802655 	3.57561e-19
0.484375 	-0.953125 	0.5 	40.1653 	-0.000483945 	-1.22607e-19
0.5 	-0.953125 	0.5 	40.1634 	0.00718813 	-4.62154e-19
0.515625 	-0.953125 	0.5 	40.1616 	0.0147212 	-2.90892e-19
0.53125 	-0.953125 	0.5 	40.1594 	0.0226457 	1.5585e-19
0.546875 	-0.953125 	0.5 	40.1575 	0.029384 	-8.57893e-20
0.5625 	-0.953125 	0.5 	40.1544 	0.0361275 	-1.63515e-19
0.578125 	-0.953125 	0.5 	40.1509 	0.0427775 	-3.31314e-20
0.59375 	-0.953125 	0.5 	40.1472 	0.0492683 	-2.70725e-20
0.609375 	-0.953125 	0.5 	40.1431 	0.0545042 	6.6259e-21
0.625 	-0.953125 	0.5 	40.1389 	0.0602285 	3.72588e-20
0.640625 	-0.953125 	0.5 	40.1355 	0.0665045 	-2.25043e-19
0.65625 	-0.953125 	0.5 	40.1319 	0.0726997 	-6.0352e-19
0.671875 	-0.953125 	0.5 	40.1269 	0.0780712 	-3.18312e-19
0.6875 	-0.953125 	0.5 	40.1225 	0.0828637 	-2.71929e-19
0.703125 	-0.953125 	0.5 	40.1166 	0.0869446 	-4.41189e-19
0.71875 	-0.953125 	0.5 	40.1119 	0.0921547 	-5.7079e-19
0.734375 	-0.953125 	0.5 	40.1067 	0.0959531 	-7.60814e-20
0.75 	-0.953125 	0.5 	40.1013 	0.0994027 	-2.01197e-19
0.765625 	-0.953125 	0.5 	40.0954 	0.102873 	4.0803e-21
0.78125 	-0.953125 	0.5 	40.0903 	0.106522 	3.94506e-19
0.796875 	-0.953125 	0.5 	40.0848 	0.109107 	1.02166e-19
0.8125 	-0.953125 	0.5 	40.0789 	0.113045 	2.96894e-19
0.828125 	-0.953125 	0.5 	40.073 	0.114128 	-1.35636e-19
0.84375 	-0.953125 	0.5 	40.0675 	0.116046 	2.60803e-20
0.859375 	-0.953125 	0.5 	40.0617 	0.117935 	1.05508e-18
0.875 	-0.953125 	0.5 	40.0563 	0.119221 	4.76665e-19
0.890625 	-0.953125 	0.5 	40.0508 	0.120695 	7.11261e-20
0.90625 	-0.953125 	0.5 	40.0448 	0.121326 	3.39484e-19
0.921875 	-0.953125 	0.5 	40.039 	0.122047 	5.38163e-19
0.9375 	-0.953125 	0.5 	40.0337 	0.123653 	2.28044e-20
0.953125 	-0.953125 	0.5 	40.0277 	0.123855 	-8.70495e-20
0.96875 	-0.953125 	0.5 	40.0226 	0.124215 	-8.77749e-19
0.984375 	-0.953125 	0.5 	40.0176 	0.123497 	1.59065e-19
1 	-0.953125 	0.5 	40.012 	0.122832 	6.36059e-19
1.01562 	-0.953125 	0.5 	40.0071 	0.122711 	-4.96503e-20
1.03125 	-0.953125 	0.5 	40.0018 	0.122382 	1.08411e-19
1.04688 	-0.953125 	0.5 	39.9965 	0.12088 	4.35183e-19
1.0625 	-0.953125 	0.5 	39.9921 	0.119655 	4.64651e-19
1.07812 	-0.953125 	0.5 	39.9874 	0.118108 	1.26044e-18
1.09375 	-0.953125 	0.5 	39.9828 	0.116666 	3.33152e-19
1.10938 	-0.953125 	0.5 	39.9784 	0.115366 	-2.56658e-19
1.125 	-0.953125 	0.5 	39.9745 	0.11324 	-6.567e-20
1.14062 	-0.953125 	0.5 	39.9703 	0.111468 	-2.05456e-20
1.15625 	-0.953125 	0.5 	39.966 	0.109436 	4.40415e-20
1.17188 	-0.953125 	0.5 	39.9621 	0.107086 	-1.01912e-19
1.1875 	-0.953125 	0.5 	39.9584 	0.104212 	1.60731e-19
1.20312 	-0.953125 	0.5 	39.9549 	0.102595 	-2.87567e-20
1.21875 	-0.953125 	0.5 	39.9524 	0.099824 	6.23416e-19
1.23438 	-0.953125 	0.5 	39.9481 	0.0969699 	9.92375e-20
1.25 	-0.953125 	0.5 	39.945 	0.0952207 	-1.31842e-20
1.26562 	-0.953125 	0.5 	39.9424 	0.092424 	1.99079e-19
1.28125 	-0.953125 	0.5 	39.9395 	0.0897673 	5.26936e-19
1.29688 	-0.953125 	0.5 	39.9375 	0.0860345 	1.61314e-19
1.3125 	-0.953125 	0.5 	39.9349 	0.0834627 	6.21695e-20
1.32812 	-0.953125 	0.5 	39.9323 	0.0807512 	1.21224e-20
1.34375 	-0.953125 	0.5 	39.9301 	0.0775614 	-1.70908e-19
1.35938 	-0.953125 	0.5 	39.9283 	0.0752565 	-7.44881e-19
1.375 	-0.953125 	0.5 	39.9268 	0.0718644 	-2.70495e-19
1.39062 	-0.953125 	0.5 	39.9253 	0.0685334 	3.15843e-19
1.40625 	-0.953125 	0.5 	39.9238 	0.0654933 	8.46988e-21
1.42188 	-0.953125 	0.5 	39.9223 	0.0626547 	-2.26282e-19
1.4375 	-0.953125 	0.5 	39.9207 	0.0599541 	-6.61834e-19
1.45312 	-0.953125 	0.5 	39.9193 	0.0572136 	-2.32736e-20
1.46875 	-0.953125 	0.5 	39.9184 	0.0545076 	-1.03742e-19
1.48438 	-0.953125 	0.5 	39.9177 	0.051568 	-1.91612e-19
-0.5 	-0.9375 	0.5 	39.8709 	-0.135407 	3.03902e-19
-0.484375 	-0.9375 	0.5 	39.8736 	-0.139609 	9.0471e-19
-0.46875 	-0.9375 	0.5 	39.8765 	-0.143619 	8.65978e-19
-0.453125 	-0.9375 	0.5 	39.8794 	-0.147128 	4.10771e-19
-0.4375 	-0.9375 	0.5 	39.8831 	-0.151257 	3.08711e-19
-0.421875 	-0.9375 	0.5 	39.8869 	-0.155494 	1.94435e-19
-0.40625 	-0.9375 	0.5 	39.8906 	-0.159811 	-9.99831e-20
-0.390625 	-0.9375 	0.5 	39.8952 	-0.163537 	-2.89422e-19
-0.375 	-0.9375 	0.5 	39.8994 	-0.167249 	-1.85084e-19
-0.359375 	-0.9375 	0.5 	39.9035 	-0.170683 	-5.25992e-19
-0.34375 	-0.9375 	0.5 	39.9087 	-0.173963 	-4.12129e-19
-0.328125 	-0.9375 	0.5 	39.9138 	-0.178792 	-6.0751e-19
-0.3125 	-0.9375 	0.5 	39.9189 	-0.181857 	1.28587e-19
-0.296875 	-0.9375 	0.5 	39.924 	-0.184218 	4.74619e-20
-0.28125 	-0.9375 	0.5 	39.9292 	-0.187325 	-7.06882e-20
-0.265625 	-0.9375 	0.5 	39.9345 	-0.190452 	-1.89827e-19
-0.25 	-0.9375 	0.5 	39.9403 	-0.193416 	-3.07104e-19
-0.234375 	-0.9375 	0.5 	39.9468 	-0.195355 	7.84447e-20
-0.21875 	-0.9375 	0.5 	39.9531 	-0.197251 	4.95906e-19
-0.203125 	-0.9375 	0.5 	39.9597 	-0.198262 	4.62697e-20
-0.1875 	-0.9375 	0.5 	39.9661 	-0.199938 	-2.20653e-19
-0.171875 	-0.9375 	0.5 	39.9732 	-0.202022 	1.87625e-19
-0.15625 	-0.9375 	0.5 	39.9804 	-0.203522 	2.96634e-19
-0.140625 	-0.9375 	0.5 	39.9876 	-0.204346 	4.83627e-19
-0.125 	-0.9375 	0.5 	39.9944 	-0.204841 	5.23043e-19
-0.109375 	-0.9375 	0.5 	40.0014 	-0.204619 	-4.30091e-19
-0.09375 	-0.9375 	0.5 	40.0089 	-0.204746 	-5.0733e-20
-0.078125 	-0.9375 	0.5 	40.0164 	-0.204072 	4.06156e-21
-0.0625 	-0.9375 	0.5 	40.0234 	-0.203569 	4.79846e-21
-0.046875 	-0.9375 	0.5 	40.0314 	-0.20208 	-1.88093e-19