-0.5 	-1 	0.5 	-57.5919
-0.484375 	-1 	0.5 	-57.874
-0.46875 	-1 	0.5 	-58.1876
-0.453125 	-1 	0.5 	-58.5047
-0.4375 	-1 	0.5 	-58.8382
-0.421875 	-1 	0.5 	-59.2636
-0.40625 	-1 	0.5 	-59.6624
-0.390625 	-1 	0.5 	-60.012
-0.375 	-1 	0.5 	-60.37
-0.359375 	-1 	0.5 	-60.7535
-0.34375 	-1 	0.5 	-61.137
-0.328125 	-1 	0.5 	-61.5583
-0.3125 	-1 	0.5 	-62.0787
-0.296875 	-1 	0.5 	-62.5925
-0.28125 	-1 	0.5 	-63.0284
-0.265625 	-1 	0.5 	-63.589
-0.25 	-1 	0.5 	-64.0592
-0.234375 	-1 	0.5 	-64.5619
-0.21875 	-1 	0.5 	-65.0652
-0.203125 	-1 	0.5 	-65.6141
-0.1875 	-1 	0.5 	-66.1486
-0.171875 	-1 	0.5 	-66.7651
-0.15625 	-1 	0.5 	-67.385
-0.140625 	-1 	0.5 	-68.0103
-0.125 	-1 	0.5 	-68.5655
-0.109375 	-1 	0.5 	-69.1007
-0.09375 	-1 	0.5 	-69.5827
-0.078125 	-1 	0.5 	-70.229
-0.0625 	-1 	0.5 	-70.9747
-0.046875 	-1 	0.5 	-71.6514
-0.03125 	-1 	0.5 	-72.298
-0.015625 	-1 	0.5 	-72.7266
0 	-1 	0.5 	-73.4531
0.015625 	-1 	0.5 	-74.1156
0.03125 	-1 	0.5 	-74.7155
0.046875 	-1 	0.5 	-75.3297
0.0625 	-1 	0.5 	-75.8991
0.078125 	-1 	0.5 	-76.5513
0.09375 	-1 	0.5 	-77.0185
0.109375 	-1 	0.5 	-77.8622
0.125 	-1 	0.5 	-78.4316
0.140625 	-1 	0.5 	-78.9637
0.15625 	-1 	0.5 	-79.3081
0.171875 	-1 	0.5 	-79.8629
0.1875 	-1 	0.5 	-80.3922
0.203125 	-1 	0.5 	-80.8929
0.21875 	-1 	0.5 	-81.3927
0.234375 	-1 	0.5 	-81.7468
0.25 	-1 	0.5 	-82.0961
0.265625 	-1 	0.5 	-82.524
0.28125 	-1 	0.5 	-82.9838
0.296875 	-1 	0.5 	-83.3982
0.3125 	-1 	0.5 	-83.7585
0.328125 	-1 	0.5 	-83.9335
0.34375 	-1 	0.5 	-84.5191
0.359375 	-1 	0.5 	-84.6582
0.375 	-1 	0.5 	-84.8956
0.390625 	-1 	0.5 	-85.1106
0.40625 	-1 	0.5 	-85.2562
0.421875 	-1 	0.5 	-85.3173
0.4375 	-1 	0.5 	-85.5315
0.453125 	-1 	0.5 	-85.7264
0.46875 	-1 	0.5 	-85.7837
0.484375 	-1 	0.5 	-85.8667
0.5 	-1 	0.5 	-85.7999
0.515625 	-1 	0.5 	-85.8027
0.53125 	-1 	0.5 	-85.8057
0.546875 	-1 	0.5 	-85.884
0.5625 	-1 	0.5 	-85.693
0.578125 	-1 	0.5 	-85.3777
0.59375 	-1 	0.5 	-85.3867
0.609375 	-1 	0.5 	-85.1712
0.625 	-1 	0.5 	-85.004
0.640625 	-1 	0.5 	-84.8489
0.65625 	-1 	0.5 	-84.5876
0.671875 	-1 	0.5 	-84.3854
0.6875 	-1 	0.5 	-84.0525
0.703125 	-1 	0.5 	-83.8422
0.71875 	-1 	0.5 	-83.6306
0.734375 	-1 	0.5 	-83.2699
0.75 	-1 	0.5 	-82.8276
0.765625 	-1 	0.5 	-82.5338
0.78125 	-1 	0.5 	-82.2157
0.796875 	-1 	0.5 	-81.9678
0.8125 	-1 	0.5 	-81.5192
0.828125 	-1 	0.5 	-81.124
0.84375 	-1 	0.5 	-80.5821
0.859375 	-1 	0.5 	-80.2102
0.875 	-1 	0.5 	-79.8019
0.890625 	-1 	0.5 	-79.3917
0.90625 	-1 	0.5 	-78.9296
0.921875 	-1 	0.5 	-78.4669
0.9375 	-1 	0.5 	-77.9354
0.953125 	-1 	0.5 	-77.5182
0.96875 	-1 	0.5 	-77.0699
0.984375 	-1 	0.5 	-76.5575
1 	-1 	0.5 	-76.1585
1.01562 	-1 	0.5 	-75.785
1.03125 	-1 	0.5 	-75.314
1.04688 	-1 	0.5 	-74.8527
1.0625 	-1 	0.5 	-74.2894
1.07812 	-1 	0.5 	-73.8024
1.09375 	-1 	0.5 	-73.4124
1.10938 	-1 	0.5 	-72.9541
1.125 	-1 	0.5 	-72.4877
1.14062 	-1 	0.5 	-72.0801
1.15625 	-1 	0.5 	-71.7221
1.17188 	-1 	0.5 	-71.3199
1.1875 	-1 	0.5 	-70.8134
1.20312 	-1 	0.5 	-70.3991
1.21875 	-1 	0.5 	-70.0602
1.23438 	-1 	0.5 	-69.6875
1.25 	-1 	0.5 	-69.332
1.26562 	-1 	0.5 	-69.0277
1.28125 	-1 	0.5 	-68.6386
1.29688 	-1 	0.5 	-68.1886
1.3125 	-1 	0.5 	-67.8469
1.32812 	-1 	0.5 	-67.4861
1.34375 	-1 	0.5 	-67.2083
1.35938 	-1 	0.5 	-66.9105
1.375 	-1 	0.5 	-66.5948
1.39062 	-1 	0.5 	-66.3204
1.40625 	-1 	0.5 	-65.9855
1.42188 	-1 	0.5 	-65.729
1.4375 	-1 	0.5 	-65.3176
1.45312 	-1 	0.5 	-65.1434
1.46875 	-1 	0.5 	-64.8698
1.48438 	-1 	0.5 	-64.6596
-0.5 	-0.984375 	0.5 	-57.2978
-0.484375 	-0.984375 	0.5 	-57.5896
-0.46875 	-0.984375 	0.5 	-57.8815
-0.453125 	-0.984375 	0.5 	-58.1924
-0.4375 	-0.984375 	0.5 	-58.5664
-0.421875 	-0.984375 	0.5 	-59.0114
-0.40625 	-0.984375 	0.5 	-59.4117
-0.390625 	-0.984375 	0.5 	-59.756
-0.375 	-0.984375 	0.5 	-60.1182
-0.359375 	-0.984375 	0.5 	-60.5017
-0.34375 	-0.984375 	0.5 	-60.7963
-0.328125 	-0.984375 	0.5 	-61.2804
-0.3125 	-0.984375 	0.5 	-61.8032
-0.296875 	-0.984375 	0.5 	-62.32
-0.28125 	-0.984375 	0.5 	-62.8786
-0.265625 	-0.984375 	0.5 	-63.4461
-0.25 	-0.984375 	0.5 	-63.9712
-0.234375 	-0.984375 	0.5 	-64.4759
-0.21875 	-0.984375 	0.5 	-64.9806
-0.203125 	-0.984375 	0.5 	-65.4716
-0.1875 	-0.984375 	0.5 	-66.0483
-0.171875 	-0.984375 	0.5 	-66.6762
-0.15625 	-0.984375 	0.5 	-67.3085
-0.140625 	-0.984375 	0.5 	-67.9407
-0.125 	-0.984375 	0.5 	-68.5961
-0.109375 	-0.984375 	0.5 	-69.1924
-0.09375 	-0.984375 	0.5 	-69.7873
-0.078125 	-0.984375 	0.5 	-70.3822
-0.0625 	-0.984375 	0.5 	-70.9759
-0.046875 	-0.984375 	0.5 	-71.6468
-0.03125 	-0.984375 	0.5 	-72.314
-0.015625 	-0.984375 	0.5 	-73.0729
0 	-0.984375 	0.5 	-73.8689
0.015625 	-0.984375 	0.5 	-74.3758
0.03125 	-0.984375 	0.5 	-74.9613
0.046875 	-0.984375 	0.5 	-75.5561
0.0625 	-0.984375 	0.5 	-76.1752
0.078125 	-0.984375 	0.5 	-76.6762
0.09375 	-0.984375 	0.5 	-77.2566
0.109375 	-0.984375 	0.5 	-78.1766
0.125 	-0.984375 	0.5 	-78.7497
0.140625 	-0.984375 	0.5 	-79.4034
0.15625 	-0.984375 	0.5 	-79.8162
0.171875 	-0.984375 	0.5 	-80.4122
0.1875 	-0.984375 	0.5 	-80.9001
0.203125 	-0.984375 	0.5 	-81.4118
0.21875 	-0.984375 	0.5 	-81.8396
0.234375 	-0.984375 	0.5 	-82.3564
0.25 	-0.984375 	0.5 	-82.7782
0.265625 	-0.984375 	0.5 	-83.1927
0.28125 	-0.984375 	0.5 	-83.6368
0.296875 	-0.984375 	0.5 	-84.0397
0.3125 	-0.984375 	0.5 	-84.2755
0.328125 	-0.984375 	0.5 	-84.5214
0.34375 	-0.984375 	0.5 	-85.1091
0.359375 	-0.984375 	0.5 	-85.402
0.375 	-0.984375 	0.5 	-85.6609
0.390625 	-0.984375 	0.5 	-85.8419
0.40625 	-0.984375 	0.5 	-85.8753
0.421875 	-0.984375 	0.5 	-86.084
0.4375 	-0.984375 	0.5 	-86.2551
0.453125 	-0.984375 	0.5 	-86.3765
0.46875 	-0.984375 	0.5 	-86.5092
0.484375 	-0.984375 	0.5 	-86.5499
0.5 	-0.984375 	0.5 	-86.5418
0.515625 	-0.984375 	0.5 	-86.4472
0.53125 	-0.984375 	0.5 	-86.4478
0.546875 	-0.984375 	0.5 	-86.4627
0.5625 	-0.984375 	0.5 	-86.3229
0.578125 	-0.984375 	0.5 	-86.1295
0.59375 	-0.984375 	0.5 	-86.0941
0.609375 	-0.984375 	0.5 	-86.0289
0.625 	-0.984375 	0.5 	-85.765
0.640625 	-0.984375 	0.5 	-85.5488
0.65625 	-0.984375 	0.5 	-85.2745
0.671875 	-0.984375 	0.5 	-85.0062
0.6875 	-0.984375 	0.5 	-84.7028
0.703125 	-0.984375 	0.5 	-84.4437
0.71875 	-0.984375 	0.5 	-84.0242
0.734375 	-0.984375 	0.5 	-83.7528
0.75 	-0.984375 	0.5 	-83.5794
0.765625 	-0.984375 	0.5 	-83.0473
0.78125 	-0.984375 	0.5 	-82.7196
0.796875 	-0.984375 	0.5 	-82.3695
0.8125 	-0.984375 	0.5 	-82.0099
0.828125 	-0.984375 	0.5 	-81.3913
0.84375 	-0.984375 	0.5 	-80.993
0.859375 	-0.984375 	0.5 	-80.5097
0.875 	-0.984375 	0.5 	-80.1221
0.890625 	-0.984375 	0.5 	-79.7354
0.90625 	-0.984375 	0.5 	-79.2585
0.921875 	-0.984375 	0.5 	-78.7631
0.9375 	-0.984375 	0.5 	-78.2082
0.953125 	-0.984375 	0.5 	-77.7633
0.96875 	-0.984375 	0.5 	-77.2721
0.984375 	-0.984375 	0.5 	-76.7858
1 	-0.984375 	0.5 	-76.3488
1.01562 	-0.984375 	0.5 	-75.9329
1.03125 	-0.984375 	0.5 	-75.4986
1.04688 	-0.984375 	0.5 	-74.9211
1.0625 	-0.984375 	0.5 	-74.2992
1.07812 	-0.984375 	0.5 	-73.807
1.09375 	-0.984375 	0.5 	-73.4632
1.10938 	-0.984375 	0.5 	-73.0698
1.125 	-0.984375 	0.5 	-72.6011
1.14062 	-0.984375 	0.5 	-72.1223
1.15625 	-0.984375 	0.5 	-71.6442
1.17188 	-0.984375 	0.5 	-71.2772
1.1875 	-0.984375 	0.5 	-70.8174
1.20312 	-0.984375 	0.5 	-70.4111
1.21875 	-0.984375 	0.5 	-70.0473
1.23438 	-0.984375 	0.5 	-69.6749
1.25 	-0.984375 	0.5 	-69.2976
1.26562 	-0.984375 	0.5 	-68.953
1.28125 	-0.984375 	0.5 	-68.5421
1.29688 	-0.984375 	0.5 	-68.0687
1.3125 	-0.984375 	0.5 	-67.734
1.32812 	-0.984375 	0.5 	-67.3773
1.34375 	-0.984375 	0.5 	-67.1112
1.35938 	-0.984375 	0.5 	-66.8117
1.375 	-0.984375 	0.5 	-66.4678
1.39062 	-0.984375 	0.5 	-66.1559
1.40625 	-0.984375 	0.5 	-65.84
1.42188 	-0.984375 	0.5 	-65.5429
1.4375 	-0.984375 	0.5 	-65.2534
1.45312 	-0.984375 	0.5 	-65.0099
1.46875 	-0.984375 	0.5 	-64.7997
1.48438 	-0.984375 	0.5 	-64.6107
-0.5 	-0.96875 	0.5 	-56.937
-0.484375 	-0.96875 	0.5 	-57.2395
-0.46875 	-0.96875 	0.5 	-57.5419
-0.453125 	-0.96875 	0.5 	-57.8627
-0.4375 	-0.96875 	0.5 	-58.2524
-0.421875 	-0.96875 	0.5 	-58.6873
-0.40625 	-0.96875 	0.5 	-59.1056
-0.390625 	-0.96875 	0.5 	-59.5033
-0.375 	-0.96875 	0.5 	-59.8663
-0.359375 	-0.96875 	0.5 	-60.1678
-0.34375 	-0.96875 	0.5 	-60.5016
-0.328125 	-0.96875 	0.5 	-60.9956
-0.3125 	-0.96875 	0.5 	-61.565
-0.296875 	-0.96875 	0.5 	-62.0938
-0.28125 	-0.96875 	0.5 	-62.6518
-0.265625 	-0.96875 	0.5 	-63.2216
-0.25 	-0.96875 	0.5 	-63.7917
-0.234375 	-0.96875 	0.5 	-64.3184
-0.21875 	-0.96875 	0.5 	-64.7968
-0.203125 	-0.96875 	0.5 	-65.3343
-0.1875 	-0.96875 	0.5 	-65.9134
-0.171875 	-0.96875 	0.5 	-66.4996
-0.15625 	-0.96875 	0.5 	-67.1458
-0.140625 	-0.96875 	0.5 	-67.9921
-0.125 	-0.96875 	0.5 	-68.6336
-0.109375 	-0.96875 	0.5 	-69.2387
-0.09375 	-0.96875 	0.5 	-69.8643
-0.078125 	-0.96875 	0.5 	-70.4415
-0.0625 	-0.96875 	0.5 	-71.0464
-0.046875 	-0.96875 	0.5 	-71.7644
-0.03125 	-0.96875 	0.5 	-72.4159
-0.015625 	-0.96875 	0.5 	-73.2636
0 	-0.96875 	0.5 	-74.0854
0.015625 	-0.96875 	0.5 	-74.6398
0.03125 	-0.96875 	0.5 	-75.2326
0.046875 	-0.96875 	0.5 	-75.7982
0.0625 	-0.96875 	0.5 	-76.5106
0.078125 	-0.96875 	0.5 	-76.9357
0.09375 	-0.96875 	0.5 	-77.7407
0.109375 	-0.96875 	0.5 	-78.5364
0.125 	-0.96875 	0.5 	-79.0969
0.140625 	-0.96875 	0.5 	-79.5836
0.15625 	-0.96875 	0.5 	-80.2699
0.171875 	-0.96875 	0.5 	-80.8385
0.1875 	-0.96875 	0.5 	-81.4076
0.203125 	-0.96875 	0.5 	-81.9217
0.21875 	-0.96875 	0.5 	-82.5257
0.234375 	-0.96875 	0.5 	-82.7267
0.25 	-0.96875 	0.5 	-83.4226
0.265625 	-0.96875 	0.5 	-84.1841
0.28125 	-0.96875 	0.5 	-84.3266
0.296875 	-0.96875 	0.5 	-84.7768
0.3125 	-0.96875 	0.5 	-84.8479
0.328125 	-0.96875 	0.5 	-85.2161
0.34375 	-0.96875 	0.5 	-85.6572
0.359375 	-0.96875 	0.5 	-86.0217
0.375 	-0.96875 	0.5 	-86.3837
0.390625 	-0.96875 	0.5 	-86.5359
0.40625 	-0.96875 	0.5 	-86.6347
0.421875 	-0.96875 	0.5 	-86.8134
0.4375 	-0.96875 	0.5 	-86.9393
0.453125 	-0.96875 	0.5 	-87.0791
0.46875 	-0.96875 	0.5 	-87.1916
0.484375 	-0.96875 	0.5 	-87.165
0.5 	-0.96875 	0.5 	-87.3111
0.515625 	-0.96875 	0.5 	-87.4062
0.53125 	-0.96875 	0.5 	-87.1984
0.546875 	-0.96875 	0.5 	-87.0911
0.5625 	-0.96875 	0.5 	-86.9921
0.578125 	-0.96875 	0.5 	-86.8813
0.59375 	-0.96875 	0.5 	-86.7507
0.609375 	-0.96875 	0.5 	-86.5838
0.625 	-0.96875 	0.5 	-86.4663
0.640625 	-0.96875 	0.5 	-86.0888
0.65625 	-0.96875 	0.5 	-85.9298
0.671875 	-0.96875 	0.5 	-85.6698
0.6875 	-0.96875 	0.5 	-85.3209
0.703125 	-0.96875 	0.5 	-85.0457
0.71875 	-0.96875 	0.5 	-84.513
0.734375 	-0.96875 	0.5 	-84.2297
0.75 	-0.96875 	0.5 	-83.8689
0.765625 	-0.96875 	0.5 	-83.5491
0.78125 	-0.96875 	0.5 	-83.0986
0.796875 	-0.96875 	0.5 	-82.8149
0.8125 	-0.96875 	0.5 	-82.3758
0.828125 	-0.96875 	0.5 	-81.8785
0.84375 	-0.96875 	0.5 	-81.3626
0.859375 	-0.96875 	0.5 	-80.9086
0.875 	-0.96875 	0.5 	-80.491
0.890625 	-0.96875 	0.5 	-80.0213
0.90625 	-0.96875 	0.5 	-79.6011
0.921875 	-0.96875 	0.5 	-79.1161
0.9375 	-0.96875 	0.5 	-78.5642
0.953125 	-0.96875 	0.5 	-77.9865
0.96875 	-0.96875 	0.5 	-77.4853
0.984375 	-0.96875 	0.5 	-76.989
1 	-0.96875 	0.5 	-76.5219
1.01562 	-0.96875 	0.5 	-76.2625
1.03125 	-0.96875 	0.5 	-75.7854
1.04688 	-0.96875 	0.5 	-74.9571
1.0625 	-0.96875 	0.5 	-74.5105
1.07812 	-0.96875 	0.5 	-74.021
1.09375 	-0.96875 	0.5 	-73.615
1.10938 	-0.96875 	0.5 	-73.1148
1.125 	-0.96875 	0.5 	-72.6922
1.14062 	-0.96875 	0.5 	-72.2142
1.15625 	-0.96875 	0.5 	-71.7577
1.17188 	-0.96875 	0.5 	-71.2834
1.1875 	-0.96875 	0.5 	-70.7998
1.20312 	-0.96875 	0.5 	-70.4022
1.21875 	-0.96875 	0.5 	-70.0277
1.23438 	-0.96875 	0.5 	-69.6597
1.25 	-0.96875 	0.5 	-69.2985
1.26562 	-0.96875 	0.5 	-68.8947
1.28125 	-0.96875 	0.5 	-68.4778
1.29688 	-0.96875 	0.5 	-68.0951
1.3125 	-0.96875 	0.5 	-67.6781
1.32812 	-0.96875 	0.5 	-67.3039
1.34375 	-0.96875 	0.5 	-66.9973
1.35938 	-0.96875 	0.5 	-66.6673
1.375 	-0.96875 	0.5 	-66.3702
1.39062 	-0.96875 	0.5 	-65.98
1.40625 	-0.96875 	0.5 	-65.6586
1.42188 	-0.96875 	0.5 	-65.3735
1.4375 	-0.96875 	0.5 	-65.1264
1.45312 	-0.96875 	0.5 	-64.8955
1.46875 	-0.96875 	0.5 	-64.7198
1.48438 	-0.96875 	0.5 	-64.4779
-0.5 	-0.953125 	0.5 	-56.5998
-0.484375 	-0.953125 	0.5 	-56.849
-0.46875 	-0.953125 	0.5 	-57.1754
-0.453125 	-0.953125 	0.5 	-57.4966
-0.4375 	-0.953125 	0.5 	-57.9006
-0.421875 	-0.953125 	0.5 	-58.2606
-0.40625 	-0.953125 	0.5 	-58.7113
-0.390625 	-0.953125 	0.5 	-59.1747
-0.375 	-0.953125 	0.5 	-59.5764
-0.359375 	-0.953125 	0.5 	-60.0172
-0.34375 	-0.953125 	0.5 	-60.458
-0.328125 	-0.953125 	0.5 	-60.8988
-0.3125 	-0.953125 	0.5 	-61.3396
-0.296875 	-0.953125 	0.5 	-61.8742
-0.28125 	-0.953125 	0.5 	-62.4418
-0.265625 	-0.953125 	0.5 	-63.0094
-0.25 	-0.953125 	0.5 	-63.5854
-0.234375 	-0.953125 	0.5 	-64.125
-0.21875 	-0.953125 	0.5 	-64.6509
-0.203125 	-0.953125 	0.5 	-65.2183
-0.1875 	-0.953125 	0.5 	-65.7861
-0.171875 	-0.953125 	0.5 	-66.3669
-0.15625 	-0.953125 	0.5 	-67.3082
-0.140625 	-0.953125 	0.5 	-68.0708
-0.125 	-0.953125 	0.5 	-68.6404
-0.109375 	-0.953125 	0.5 	-69.2965
-0.09375 	-0.953125 	0.5 	-69.8813
-0.078125 	-0.953125 	0.5 	-70.4696
-0.0625 	-0.953125 	0.5 	-71.1226
-0.046875 	-0.953125 	0.5 	-71.8399
-0.03125 	-0.953125 	0.5 	-72.6267
-0.015625 	-0.953125 	0.5 	-73.4906
0 	-0.953125 	0.5 	-74.3222
0.015625 	-0.953125 	0.5 	-74.8671
0.03125 	-0.953125 	0.5 	-75.4144
0.046875 	-0.953125 	0.5 	-76.0855
0.0625 	-0.953125 	0.5 	-76.982
0.078125 	-0.953125 	0.5 	-77.4419
0.09375 	-0.953125 	0.5 	-78.2089
0.109375 	-0.953125 	0.5 	-79.0779
0.125 	-0.953125 	0.5 	-79.725
0.140625 	-0.953125 	0.5 	-80.0971
0.15625 	-0.953125 	0.5 	-80.7231
0.171875 	-0.953125 	0.5 	-81.3203
0.1875 	-0.953125 	0.5 	-81.9752
0.203125 	-0.953125 	0.5 	-82.4876
0.21875 	-0.953125 	0.5 	-83.0739
0.234375 	-0.953125 	0.5 	-83.3978
0.25 	-0.953125 	0.5 	-83.9805
0.265625 	-0.953125 	0.5 	-84.6992
0.28125 	-0.953125 	0.5 	-85.0444
0.296875 	-0.953125 	0.5 	-85.5093
0.3125 	-0.953125 	0.5 	-85.7013
0.328125 	-0.953125 	0.5 	-85.9621
0.34375 	-0.953125 	0.5 	-86.2875
0.359375 	-0.953125 	0.5 	-86.865
0.375 	-0.953125 	0.5 	-87.0547
0.390625 	-0.953125 	0.5 	-87.3288
0.40625 	-0.953125 	0.5 	-87.388
0.421875 	-0.953125 	0.5 	-87.5856
0.4375 	-0.953125 	0.5 	-87.7071
0.453125 	-0.953125 	0.5 	-87.8419
0.46875 	-0.953125 	0.5 	-87.9648
0.484375 	-0.953125 	0.5 	-88.0013
0.5 	-0.953125 	0.5 	-88.0903
0.515625 	-0.953125 	0.5 	-88.0046
0.53125 	-0.953125 	0.5 	-88.0026
0.546875 	-0.953125 	0.5 	-87.8189
0.5625 	-0.953125 	0.5 	-87.6028
0.578125 	-0.953125 	0.5 	-87.7721
0.59375 	-0.953125 	0.5 	-87.4504
0.609375 	-0.953125 	0.5 	-87.2008
0.625 	-0.953125 	0.5 	-86.8353
0.640625 	-0.953125 	0.5 	-86.8134
0.65625 	-0.953125 	0.5 	-86.7458
0.671875 	-0.953125 	0.5 	-86.336
0.6875 	-0.953125 	0.5 	-85.9354
0.703125 	-0.953125 	0.5 	-85.6498
0.71875 	-0.953125 	0.5 	-85.1901
0.734375 	-0.953125 	0.5 	-84.7731
0.75 	-0.953125 	0.5 	-84.3825
0.765625 	-0.953125 	0.5 	-84.0633
0.78125 	-0.953125 	0.5 	-83.6047
0.796875 	-0.953125 	0.5 	-83.3251
0.8125 	-0.953125 	0.5 	-82.8595
0.828125 	-0.953125 	0.5 	-82.3271
0.84375 	-0.953125 	0.5 	-81.7311
0.859375 	-0.953125 	0.5 	-81.3515
0.875 	-0.953125 	0.5 	-80.9031
0.890625 	-0.953125 	0.5 	-80.4832
0.90625 	-0.953125 	0.5 	-79.9456
0.921875 	-0.953125 	0.5 	-79.4397
0.9375 	-0.953125 	0.5 	-78.7433
0.953125 	-0.953125 	0.5 	-78.2557
0.96875 	-0.953125 	0.5 	-77.7365
0.984375 	-0.953125 	0.5 	-77.2453
1 	-0.953125 	0.5 	-76.5404
1.01562 	-0.953125 	0.5 	-76.112
1.03125 	-0.953125 	0.5 	-75.7097
1.04688 	-0.953125 	0.5 	-75.2234
1.0625 	-0.953125 	0.5 	-74.6191
1.07812 	-0.953125 	0.5 	-74.1843
1.09375 	-0.953125 	0.5 	-73.7178
1.10938 	-0.953125 	0.5 	-73.2405
1.125 	-0.953125 	0.5 	-72.7632
1.14062 	-0.953125 	0.5 	-72.2841
1.15625 	-0.953125 	0.5 	-71.7725
1.17188 	-0.953125 	0.5 	-71.2609
1.1875 	-0.953125 	0.5 	-70.7866
1.20312 	-0.953125 	0.5 	-70.255
1.21875 	-0.953125 	0.5 	-69.9949
1.23438 	-0.953125 	0.5 	-69.714
1.25 	-0.953125 	0.5 	-69.2536
1.26562 	-0.953125 	0.5 	-68.8122
1.28125 	-0.953125 	0.5 	-68.3366
1.29688 	-0.953125 	0.5 	-67.8883
1.3125 	-0.953125 	0.5 	-67.5334
1.32812 	-0.953125 	0.5 	-67.1972
1.34375 	-0.953125 	0.5 	-66.852
1.35938 	-0.953125 	0.5 	-66.5748
1.375 	-0.953125 	0.5 	-66.2808
1.39062 	-0.953125 	0.5 	-65.8515
1.40625 	-0.953125 	0.5 	-65.4621
1.42188 	-0.953125 	0.5 	-65.2731
1.4375 	-0.953125 	0.5 	-64.9512
1.45312 	-0.953125 	0.5 	-64.7941
1.46875 	-0.953125 	0.5 	-64.5312
1.48438 	-0.953125 	0.5 	-64.2718
-0.5 	-0.9375 	0.5 	-56.2464
-0.484375 	-0.9375 	0.5 	-56.5171
-0.46875 	-0.9375 	0.5 	-56.8315
-0.453125 	-0.9375 	0.5 	-57.127
-0.4375 	-0.9375 	0.5 	-57.5433
-0.421875 	-0.9375 	0.5 	-57.935
-0.40625 	-0.9375 	0.5 	-58.397
-0.390625 	-0.9375 	0.5 	-58.9159
-0.375 	-0.9375 	0.5 	-59.3279
-0.359375 	-0.9375 	0.5 	-59.7027
-0.34375 	-0.9375 	0.5 	-59.9425
-0.328125 	-0.9375 	0.5 	-60.4768
-0.3125 	-0.9375 	0.5 	-61.0126
-0.296875 	-0.9375 	0.5 	-61.5753
-0.28125 	-0.9375 	0.5 	-62.1466
-0.265625 	-0.9375 	0.5 	-62.7345
-0.25 	-0.9375 	0.5 	-63.3308
-0.234375 	-0.9375 	0.5 	-63.9865
-0.21875 	-0.9375 	0.5 	-64.5321
-0.203125 	-0.9375 	0.5 	-65.0946
-0.1875 	-0.9375 	0.5 	-65.665
-0.171875 	-0.9375 	0.5 	-66.276
-0.15625 	-0.9375 	0.5 	-67.1634
-0.140625 	-0.9375 	0.5 	-67.9622
-0.125 	-0.9375 	0.5 	-68.6473
-0.109375 	-0.9375 	0.5 	-69.3446
-0.09375 	-0.9375 	0.5 	-69.9181
-0.078125 	-0.9375 	0.5 	-70.5035
-0.0625 	-0.9375 	0.5 	-71.1728
-0.046875 	-0.9375 	0.5 	-71.7373
-0.03125 	-0.9375 	0.5 	-72.8551
-0.015625 	-0.9375 	0.5 	-73.6443
0 	-0.9375 	0.5 	-74.4832
0.015625 	-0.9375 	0.5 	-75.1269
0.03125 	-0.9375 	0.5 	-75.8025
0.046875 	-0.9375 	0.5 	-76.4196
0.0625 	-0.9375 	0.5 	-77.1882
0.078125 	-0.9375 	0.5 	-77.715
0.09375 	-0.9375 	0.5 	-78.9183
0.109375 	-0.9375 	0.5 	-79.3421
0.125 	-0.9375 	0.5 	-80.4527
0.140625 	-0.9375 	0.5 	-80.7892
0.15625 	-0.9375 	0.5 	-81.2282
0.171875 	-0.9375 	0.5 	-81.8465
0.1875 	-0.9375 	0.5 	-82.5251
0.203125 	-0.9375 	0.5 	-83.1075
0.21875 	-0.9375 	0.5 	-83.6091
0.234375 	-0.9375 	0.5 	-84.1279
0.25 	-0.9375 	0.5 	-84.6252
0.265625 	-0.9375 	0.5 	-85.1201
0.28125 	-0.9375 	0.5 	-85.6119
0.296875 	-0.9375 	0.5 	-86.0946
0.3125 	-0.9375 	0.5 	-86.5522
0.328125 	-0.9375 	0.5 	-86.7729
0.34375 	-0.9375 	0.5 	-87.0969
0.359375 	-0.9375 	0.5 	-87.4764
0.375 	-0.9375 	0.5 	-87.7462
0.390625 	-0.9375 	0.5 	-87.9759
0.40625 	-0.9375 	0.5 	-88.2056
0.421875 	-0.9375 	0.5 	-88.3431
0.4375 	-0.9375 	0.5 	-88.4731
0.453125 	-0.9375 	0.5 	-88.602
0.46875 	-0.9375 	0.5 	-88.7016
0.484375 	-0.9375 	0.5 	-88.8012
0.5 	-0.9375 	0.5 	-88.8195
0.515625 	-0.9375 	0.5 	-88.7261
0.53125 	-0.9375 	0.5 	-88.6061
0.546875 	-0.9375 	0.5 	-88.3339
0.5625 	-0.9375 	0.5 	-88.4741
0.578125 	-0.9375 	0.5 	-88.5507
0.59375 	-0.9375 	0.5 	-88.2185
0.609375 	-0.9375 	0.5 	-87.959
0.625 	-0.9375 	0.5 	-87.7457
0.640625 	-0.9375 	0.5 	-87.649
0.65625 	-0.9375 	0.5 	-87.2978
0.671875 	-0.9375 	0.5 	-87.0096
0.6875 	-0.9375 	0.5 	-86.6424
0.703125 	-0.9375 	0.5 	-86.3705
0.71875 	-0.9375 	0.5 	-85.7605
0.734375 	-0.9375 	0.5 	-85.3632
0.75 	-0.9375 	0.5 	-85.0158
0.765625 	-0.9375 	0.5 	-84.5775
0.78125 	-0.9375 	0.5 	-84.2687
0.796875 	-0.9375 	0.5 	-83.8549
0.8125 	-0.9375 	0.5 	-83.3779
0.828125 	-0.9375 	0.5 	-82.519
0.84375 	-0.9375 	0.5 	-82.2131
0.859375 	-0.9375 	0.5 	-81.6539
0.875 	-0.9375 	0.5 	-81.3007
0.890625 	-0.9375 	0.5 	-80.8106
0.90625 	-0.9375 	0.5 	-80.2849
0.921875 	-0.9375 	0.5 	-79.7593
0.9375 	-0.9375 	0.5 	-79.113
0.953125 	-0.9375 	0.5 	-78.5248
0.96875 	-0.9375 	0.5 	-78.0005
0.984375 	-0.9375 	0.5 	-77.4555
1 	-0.9375 	0.5 	-76.6853
1.01562 	-0.9375 	0.5 	-76.2899
1.03125 	-0.9375 	0.5 	-75.8537
1.04688 	-0.9375 	0.5 	-75.5355
1.0625 	-0.9375 	0.5 	-74.8526
1.07812 	-0.9375 	0.5 	-74.2554
1.09375 	-0.9375 	0.5 	-73.7124
1.10938 	-0.9375 	0.5 	-73.2104
1.125 	-0.9375 	0.5 	-72.7681
1.14062 	-0.9375 	0.5 	-72.2681
1.15625 	-0.9375 	0.5 	-71.7367
1.17188 	-0.9375 	0.5 	-71.2559
1.1875 	-0.9375 	0.5 	-70.5234
1.20312 	-0.9375 	0.5 	-70.1919
1.21875 	-0.9375 	0.5 	-69.7469
1.23438 	-0.9375 	0.5 	-69.4988
1.25 	-0.9375 	0.5 	-69.1108
1.26562 	-0.9375 	0.5 	-68.7382
1.28125 	-0.9375 	0.5 	-68.2534
1.29688 	-0.9375 	0.5 	-67.7772
1.3125 	-0.9375 	0.5 	-67.4439
1.32812 	-0.9375 	0.5 	-67.0408
1.34375 	-0.9375 	0.5 	-66.7031
1.35938 	-0.9375 	0.5 	-66.3946
1.375 	-0.9375 	0.5 	-66.0541
1.39062 	-0.9375 	0.5 	-65.7244
1.40625 	-0.9375 	0.5 	-65.4154
1.42188 	-0.9375 	0.5 	-65.0601
1.4375 	-0.9375 	0.5 	-64.785
1.45312 	-0.9375 	0.5 	-64.6027
1.46875 	-0.9375 	0.5 	-64.3484
1.48438 	-0.9375 	0.5 	-64.0684
-0.5 	-0.921875 	0.5 	-55.8766
-0.484375 	-0.921875 	0.5 	-56.1688
-0.46875 	-0.921875 	0.5 	-56.4963
-0.453125 	-0.921875 	0.5 	-56.8657
-0.4375 	-0.921875 	0.5 	-57.2351
-0.421875 	-0.921875 	0.5 	-57.6192
-0.40625 	-0.921875 	0.5 	-58.1457
-0.390625 	-0.921875 	0.5 	-58.6391
-0.375 	-0.921875 	0.5 	-58.9435
-0.359375 	-0.921875 	0.5 	-59.4715
-0.34375 	-0.921875 	0.5 	-59.8342
-0.328125 	-0.921875 	0.5 	-60.2616
-0.3125 	-0.921875 	0.5 	-60.6768
-0.296875 	-0.921875 	0.5 	-61.24
-0.28125 	-0.921875 	0.5 	-61.844
-0.265625 	-0.921875 	0.5 	-62.4574
-0.25 	-0.921875 	0.5 	-63.2725
-0.234375 	-0.921875 	0.5 	-63.8014
-0.21875 	-0.921875 	0.5 	-64.4449
-0.203125 	-0.921875 	0.5 	-64.984
-0.1875 	-0.921875 	0.5 	-65.5584
-0.171875 	-0.921875 	0.5 	-66.1937
-0.15625 	-0.921875 	0.5 	-67.0004
-0.140625 	-0.921875 	0.5 	-67.8536
-0.125 	-0.921875 	0.5 	-68.5245
-0.109375 	-0.921875 	0.5 	-69.1771
-0.09375 	-0.921875 	0.5 	-69.8771
-0.078125 	-0.921875 	0.5 	-70.5543
-0.0625 	-0.921875 	0.5 	-71.3329
-0.046875 	-0.921875 	0.5 	-71.8682
-0.03125 	-0.921875 	0.5 	-72.9713
-0.015625 	-0.921875 	0.5 	-73.881
0 	-0.921875 	0.5 	-74.6456
0.015625 	-0.921875 	0.5 	-75.2122
0.03125 	-0.921875 	0.5 	-75.9811
0.046875 	-0.921875 	0.5 	-76.7376
0.0625 	-0.921875 	0.5 	-77.3876
0.078125 	-0.921875 	0.5 	-77.9275
0.09375 	-0.921875 	0.5 	-78.9654
0.109375 	-0.921875 	0.5 	-79.8233
0.125 	-0.921875 	0.5 	-80.3903
0.140625 	-0.921875 	0.5 	-81.0174
0.15625 	-0.921875 	0.5 	-81.7395
0.171875 	-0.921875 	0.5 	-82.4186
0.1875 	-0.921875 	0.5 	-83.0749
0.203125 	-0.921875 	0.5 	-83.5447
0.21875 	-0.921875 	0.5 	-84.1084
0.234375 	-0.921875 	0.5 	-84.7925
0.25 	-0.921875 	0.5 	-85.2561
0.265625 	-0.921875 	0.5 	-85.863
0.28125 	-0.921875 	0.5 	-86.3369
0.296875 	-0.921875 	0.5 	-86.7856
0.3125 	-0.921875 	0.5 	-87.2919
0.328125 	-0.921875 	0.5 	-87.4375
0.34375 	-0.921875 	0.5 	-87.9059
0.359375 	-0.921875 	0.5 	-88.2341
0.375 	-0.921875 	0.5 	-88.5435
0.390625 	-0.921875 	0.5 	-88.8025
0.40625 	-0.921875 	0.5 	-89.0602
0.421875 	-0.921875 	0.5 	-89.2229
0.4375 	-0.921875 	0.5 	-89.3518
0.453125 	-0.921875 	0.5 	-89.4733
0.46875 	-0.921875 	0.5 	-89.5545
0.484375 	-0.921875 	0.5 	-89.6239
0.5 	-0.921875 	0.5 	-89.6772
0.515625 	-0.921875 	0.5 	-89.4152
0.53125 	-0.921875 	0.5 	-89.7573
0.546875 	-0.921875 	0.5 	-89.5523
0.5625 	-0.921875 	0.5 	-89.2506
0.578125 	-0.921875 	0.5 	-89.0328
0.59375 	-0.921875 	0.5 	-88.931
0.609375 	-0.921875 	0.5 	-89.2032
0.625 	-0.921875 	0.5 	-88.6993
0.640625 	-0.921875 	0.5 	-88.3378
0.65625 	-0.921875 	0.5 	-88.0716
0.671875 	-0.921875 	0.5 	-87.7246
0.6875 	-0.921875 	0.5 	-87.3194
0.703125 	-0.921875 	0.5 	-87.0671
0.71875 	-0.921875 	0.5 	-86.4383
0.734375 	-0.921875 	0.5 	-85.9965
0.75 	-0.921875 	0.5 	-85.7951
0.765625 	-0.921875 	0.5 	-85.1832
0.78125 	-0.921875 	0.5 	-84.6708
0.796875 	-0.921875 	0.5 	-84.3124
0.8125 	-0.921875 	0.5 	-83.8497
0.828125 	-0.921875 	0.5 	-83.3612
0.84375 	-0.921875 	0.5 	-82.7311
0.859375 	-0.921875 	0.5 	-82.2596
0.875 	-0.921875 	0.5 	-81.6566
0.890625 	-0.921875 	0.5 	-81.1327
0.90625 	-0.921875 	0.5 	-80.5967
0.921875 	-0.921875 	0.5 	-80.0695
0.9375 	-0.921875 	0.5 	-79.4278
0.953125 	-0.921875 	0.5 	-78.8174
0.96875 	-0.921875 	0.5 	-78.2916
0.984375 	-0.921875 	0.5 	-77.7571
1 	-0.921875 	0.5 	-77.065
1.01562 	-0.921875 	0.5 	-76.3867
1.03125 	-0.921875 	0.5 	-76.0147
1.04688 	-0.921875 	0.5 	-75.6084
1.0625 	-0.921875 	0.5 	-75.1383
1.07812 	-0.921875 	0.5 	-74.3659
1.09375 	-0.921875 	0.5 	-73.7821
1.10938 	-0.921875 	0.5 	-73.23
1.125 	-0.921875 	0.5 	-72.7657
1.14062 	-0.921875 	0.5 	-72.2595
1.15625 	-0.921875 	0.5 	-71.7435
1.17188 	-0.921875 	0.5 	-71.0894
1.1875 	-0.921875 	0.5 	-70.3327
1.20312 	-0.921875 	0.5 	-70.1736
1.21875 	-0.921875 	0.5 	-69.5759
1.23438 	-0.921875 	0.5 	-69.3395
1.25 	-0.921875 	0.5 	-68.993
1.26562 	-0.921875 	0.5 	-68.5553
1.28125 	-0.921875 	0.5 	-68.1223
1.29688 	-0.921875 	0.5 	-67.684
1.3125 	-0.921875 	0.5 	-67.2877
1.32812 	-0.921875 	0.5 	-66.8824
1.34375 	-0.921875 	0.5 	-66.5222
1.35938 	-0.921875 	0.5 	-66.2392
1.375 	-0.921875 	0.5 	-65.8989
1.39062 	-0.921875 	0.5 	-65.5656
1.40625 	-0.921875 	0.5 	-65.256
1.42188 	-0.921875 	0.5 	-64.9695
1.4375 	-0.921875 	0.5 	-64.6829
1.45312 	-0.921875 	0.5 	-64.3966
1.46875 	-0.921875 	0.5 	-64.1295
1.48438 	-0.921875 	0.5 	-63.861
-0.5 	-0.90625 	0.5 	-55.5908
-0.484375 	-0.90625 	0.5 	-55.7605
-0.46875 	-0.90625 	0.5 	-56.0922
-0.453125 	-0.90625 	0.5 	-56.4983
-0.4375 	-0.90625 	0.5 	-56.8688
-0.421875 	-0.90625 	0.5 	-57.2115
-0.40625 	-0.90625 	0.5 	-57.6825
-0.390625 	-0.90625 	0.5 	-58.219
-0.375 	-0.90625 	0.5 	-58.5591
-0.359375 	-0.90625 	0.5 	-59.1013
-0.34375 	-0.90625 	0.5 	-59.5148
-0.328125 	-0.90625 	0.5 	-59.9873
-0.3125 	-0.90625 	0.5 	-60.4895
-0.296875 	-0.90625 	0.5 	-61.0024
-0.28125 	-0.90625 	0.5 	-61.5241
-0.265625 	-0.90625 	0.5 	-62.2648
-0.25 	-0.90625 	0.5 	-62.9952
-0.234375 	-0.90625 	0.5 	-63.5757
-0.21875 	-0.90625 	0.5 	-64.2913
-0.203125 	-0.90625 	0.5 	-64.9033
-0.1875 	-0.90625 	0.5 	-65.4771
-0.171875 	-0.90625 	0.5 	-66.2553
-0.15625 	-0.90625 	0.5 	-67.016
-0.140625 	-0.90625 	0.5 	-67.7135
-0.125 	-0.90625 	0.5 	-68.5129
-0.109375 	-0.90625 	0.5 	-69.243
-0.09375 	-0.90625 	0.5 	-69.8551
-0.078125 	-0.90625 	0.5 	-70.6743
-0.0625 	-0.90625 	0.5 	-71.1803
-0.046875 	-0.90625 	0.5 	-72.1313
-0.03125 	-0.90625 	0.5 	-73.1085
-0.015625 	-0.90625 	0.5 	-73.9058
0 	-0.90625 	0.5 	-74.7689
0.015625 	-0.90625 	0.5 	-75.4705
0.03125 	-0.90625 	0.5 	-76.0801
0.046875 	-0.90625 	0.5 	-76.9873
0.0625 	-0.90625 	0.5 	-77.6726
0.078125 	-0.90625 	0.5 	-78.4691
0.09375 	-0.90625 	0.5 	-79.3275
0.109375 	-0.90625 	0.5 	-80.156
0.125 	-0.90625 	0.5 	-80.8337
0.140625 	-0.90625 	0.5 	-81.5114
0.15625 	-0.90625 	0.5 	-82.2368
0.171875 	-0.90625 	0.5 	-82.9222
0.1875 	-0.90625 	0.5 	-83.6255
0.203125 	-0.90625 	0.5 	-84.2582
0.21875 	-0.90625 	0.5 	-84.8144
0.234375 	-0.90625 	0.5 	-85.391
0.25 	-0.90625 	0.5 	-85.9633
0.265625 	-0.90625 	0.5 	-86.5026
0.28125 	-0.90625 	0.5 	-87.0261
0.296875 	-0.90625 	0.5 	-87.5231
0.3125 	-0.90625 	0.5 	-88.0281
0.328125 	-0.90625 	0.5 	-88.4642
0.34375 	-0.90625 	0.5 	-88.7679
0.359375 	-0.90625 	0.5 	-89.0835
0.375 	-0.90625 	0.5 	-89.3444
0.390625 	-0.90625 	0.5 	-89.7536
0.40625 	-0.90625 	0.5 	-89.9267
0.421875 	-0.90625 	0.5 	-90.0839
0.4375 	-0.90625 	0.5 	-90.2314
0.453125 	-0.90625 	0.5 	-90.3057
0.46875 	-0.90625 	0.5 	-90.3799
0.484375 	-0.90625 	0.5 	-90.4365
0.5 	-0.90625 	0.5 	-90.4391
0.515625 	-0.90625 	0.5 	-90.446
0.53125 	-0.90625 	0.5 	-90.5205
0.546875 	-0.90625 	0.5 	-90.3789
0.5625 	-0.90625 	0.5 	-90.0902
0.578125 	-0.90625 	0.5 	-89.7133
0.59375 	-0.90625 	0.5 	-89.7013
0.609375 	-0.90625 	0.5 	-89.69
0.625 	-0.90625 	0.5 	-89.7506
0.640625 	-0.90625 	0.5 	-89.0076
0.65625 	-0.90625 	0.5 	-88.777
0.671875 	-0.90625 	0.5 	-88.5344
0.6875 	-0.90625 	0.5 	-88.1479
0.703125 	-0.90625 	0.5 	-87.6565
0.71875 	-0.90625 	0.5 	-87.1104
0.734375 	-0.90625 	0.5 	-86.6154
0.75 	-0.90625 	0.5 	-86.2437
0.765625 	-0.90625 	0.5 	-85.8004
0.78125 	-0.90625 	0.5 	-85.1675
0.796875 	-0.90625 	0.5 	-84.7606
0.8125 	-0.90625 	0.5 	-84.3885
0.828125 	-0.90625 	0.5 	-83.8767
0.84375 	-0.90625 	0.5 	-83.2291
0.859375 	-0.90625 	0.5 	-82.4573
0.875 	-0.90625 	0.5 	-82.0219
0.890625 	-0.90625 	0.5 	-81.5128
0.90625 	-0.90625 	0.5 	-80.9306
0.921875 	-0.90625 	0.5 	-80.3525
0.9375 	-0.90625 	0.5 	-79.7798
0.953125 	-0.90625 	0.5 	-79.1561
0.96875 	-0.90625 	0.5 	-78.6205
0.984375 	-0.90625 	0.5 	-77.9948
1 	-0.90625 	0.5 	-77.1924
1.01562 	-0.90625 	0.5 	-76.7437
1.03125 	-0.90625 	0.5 	-76.0642
1.04688 	-0.90625 	0.5 	-75.5914
1.0625 	-0.90625 	0.5 	-75.0431
1.07812 	-0.90625 	0.5 	-74.4643
1.09375 	-0.90625 	0.5 	-73.8731
1.10938 	-0.90625 	0.5 	-73.2818
1.125 	-0.90625 	0.5 	-72.7423
1.14062 	-0.90625 	0.5 	-72.2342
1.15625 	-0.90625 	0.5 	-71.7141
1.17188 	-0.90625 	0.5 	-71.1967
1.1875 	-0.90625 	0.5 	-70.5792
1.20312 	-0.90625 	0.5 	-70.1412
1.21875 	-0.90625 	0.5 	-69.6743
1.23438 	-0.90625 	0.5 	-69.4246
1.25 	-0.90625 	0.5 	-68.9483
1.26562 	-0.90625 	0.5 	-68.4489
1.28125 	-0.90625 	0.5 	-67.9984
1.29688 	-0.90625 	0.5 	-67.5111
1.3125 	-0.90625 	0.5 	-67.1406
1.32812 	-0.90625 	0.5 	-66.7193
1.34375 	-0.90625 	0.5 	-66.3412
1.35938 	-0.90625 	0.5 	-66.0292
1.375 	-0.90625 	0.5 	-65.7593
1.39062 	-0.90625 	0.5 	-65.3769
1.40625 	-0.90625 	0.5 	-65.0196
1.42188 	-0.90625 	0.5 	-64.7242
1.4375 	-0.90625 	0.5 	-64.4386
1.45312 	-0.90625 	0.5 	-64.1781
1.46875 	-0.90625 	0.5 	-63.9178
1.48438 	-0.90625 	0.5 	-63.6507
-0.5 	-0.890625 	0.5 	-55.1389
-0.484375 	-0.890625 	0.5 	-55.3168
-0.46875 	-0.890625 	0.5 	-55.6633
-0.453125 	-0.890625 	0.5 	-56.0574
-0.4375 	-0.890625 	0.5 	-56.4515
-0.421875 	-0.890625 	0.5 	-56.8005
-0.40625 	-0.890625 	0.5 	-57.2069
-0.390625 	-0.890625 	0.5 	-57.7225
-0.375 	-0.890625 	0.5 	-58.1781
-0.359375 	-0.890625 	0.5 	-58.6427
-0.34375 	-0.890625 	0.5 	-59.0036
-0.328125 	-0.890625 	0.5 	-59.5528
-0.3125 	-0.890625 	0.5 	-60.1696
-0.296875 	-0.890625 	0.5 	-60.6904
-0.28125 	-0.890625 	0.5 	-61.1865
-0.265625 	-0.890625 	0.5 	-61.8332
-0.25 	-0.890625 	0.5 	-62.5527
-0.234375 	-0.890625 	0.5 	-63.2311
-0.21875 	-0.890625 	0.5 	-63.9146
-0.203125 	-0.890625 	0.5 	-64.5932
-0.1875 	-0.890625 	0.5 	-65.3686
-0.171875 	-0.890625 	0.5 	-66.1626
-0.15625 	-0.890625 	0.5 	-66.8712
-0.140625 	-0.890625 	0.5 	-67.5614
-0.125 	-0.890625 	0.5 	-68.4146
-0.109375 	-0.890625 	0.5 	-69.1919