-0.5 	-1 	0.5 	39.4579 	0.103042 	-3.82975e-19
-0.484375 	-1 	0.5 	39.4574 	0.0961775 	-7.54443e-19
-0.46875 	-1 	0.5 	39.4568 	0.0905801 	-3.9312e-19
-0.453125 	-1 	0.5 	39.4563 	0.0841789 	-7.15651e-19
-0.4375 	-1 	0.5 	39.4565 	0.0764057 	-1.22714e-18
-0.421875 	-1 	0.5 	39.4568 	0.0699922 	-1.86415e-19
-0.40625 	-1 	0.5 	39.4575 	0.0649406 	1.5372e-19
-0.390625 	-1 	0.5 	39.4565 	0.0574622 	6.04762e-19
-0.375 	-1 	0.5 	39.4587 	0.0527995 	6.77864e-18
-0.359375 	-1 	0.5 	39.4596 	0.0456034 	2.73973e-18
-0.34375 	-1 	0.5 	39.4608 	0.0398776 	-3.97476e-18
-0.328125 	-1 	0.5 	39.462 	0.0341775 	-3.6035e-19
-0.3125 	-1 	0.5 	39.4638 	0.0281535 	3.46468e-19
-0.296875 	-1 	0.5 	39.4662 	0.0216899 	7.11322e-20
-0.28125 	-1 	0.5 	39.4683 	0.0158558 	-2.85208e-20
-0.265625 	-1 	0.5 	39.4703 	0.010965 	4.62203e-18
-0.25 	-1 	0.5 	39.473 	0.00572013 	4.60048e-18
-0.234375 	-1 	0.5 	39.4761 	0.000299594 	5.80613e-19
-0.21875 	-1 	0.5 	39.4783 	-0.00606075 	5.09712e-19
-0.203125 	-1 	0.5 	39.4811 	-0.0116993 	-5.19957e-19
-0.1875 	-1 	0.5 	39.4842 	-0.0163712 	-2.94669e-18
-0.171875 	-1 	0.5 	39.4877 	-0.021218 	2.50122e-18
-0.15625 	-1 	0.5 	39.4917 	-0.0262333 	4.06625e-18
-0.140625 	-1 	0.5 	39.4954 	-0.0306556 	1.90453e-18
-0.125 	-1 	0.5 	39.4991 	-0.0342026 	1.62132e-18
-0.109375 	-1 	0.5 	39.5031 	-0.0379743 	-7.76094e-19
-0.09375 	-1 	0.5 	39.5076 	-0.0414502 	5.77802e-19
-0.078125 	-1 	0.5 	39.5114 	-0.044461 	2.09379e-18
-0.0625 	-1 	0.5 	39.5157 	-0.0478029 	1.49379e-18
-0.046875 	-1 	0.5 	39.5204 	-0.0510447 	5.13098e-19
-0.03125 	-1 	0.5 	39.5247 	-0.0537474 	5.73479e-20
-0.015625 	-1 	0.5 	39.529 	-0.0562379 	-2.18336e-19
0 	-1 	0.5 	39.5334 	-0.0581784 	-5.58692e-20
0.015625 	-1 	0.5 	39.5381 	-0.0597098 	-2.29301e-18
0.03125 	-1 	0.5 	39.5423 	-0.0613564 	-4.34866e-18
0.046875 	-1 	0.5 	39.5461 	-0.0638616 	-6.16151e-19
0.0625 	-1 	0.5 	39.5508 	-0.065108 	-2.10948e-18
0.078125 	-1 	0.5 	39.5552 	-0.0655181 	-2.39911e-18
0.09375 	-1 	0.5 	39.5594 	-0.0657131 	-1.1725e-18
0.109375 	-1 	0.5 	39.5635 	-0.0657878 	-8.76076e-20
0.125 	-1 	0.5 	39.567 	-0.0661807 	-1.49557e-20
0.140625 	-1 	0.5 	39.5706 	-0.0664722 	1.57808e-19
0.15625 	-1 	0.5 	39.5748 	-0.0659306 	1.87965e-19
0.171875 	-1 	0.5 	39.5783 	-0.0657164 	-1.53888e-18
0.1875 	-1 	0.5 	39.5814 	-0.0649963 	-1.62027e-18
0.203125 	-1 	0.5 	39.5845 	-0.0641121 	-1.29523e-19
0.21875 	-1 	0.5 	39.5874 	-0.0632742 	3.40095e-19
0.234375 	-1 	0.5 	39.5903 	-0.0624652 	3.36106e-19
0.25 	-1 	0.5 	39.5929 	-0.0610837 	9.37391e-19
0.265625 	-1 	0.5 	39.5949 	-0.0597348 	-6.8393e-18
0.28125 	-1 	0.5 	39.597 	-0.0583261 	-8.22927e-18
0.296875 	-1 	0.5 	39.5994 	-0.0565295 	-3.83304e-19
0.3125 	-1 	0.5 	39.6011 	-0.0544986 	-3.51853e-19
0.328125 	-1 	0.5 	39.6024 	-0.0541217 	1.71512e-19
0.34375 	-1 	0.5 	39.6041 	-0.0514793 	1.41809e-19
0.359375 	-1 	0.5 	39.6048 	-0.0495645 	-1.14046e-19
0.375 	-1 	0.5 	39.6053 	-0.0480077 	-2.94951e-19
0.390625 	-1 	0.5 	39.6058 	-0.0464509 	-4.75856e-19
0.40625 	-1 	0.5 	39.6061 	-0.0449552 	-7.94067e-20
0.421875 	-1 	0.5 	39.6064 	-0.0432022 	3.19776e-19
0.4375 	-1 	0.5 	39.6066 	-0.0414624 	6.40926e-19
0.453125 	-1 	0.5 	39.6063 	-0.0395888 	1.3994e-18
0.46875 	-1 	0.5 	39.6053 	-0.0382319 	2.40756e-18
0.484375 	-1 	0.5 	39.6046 	-0.0367582 	1.24302e-18
0.5 	-1 	0.5 	39.6039 	-0.0351868 	-3.87196e-19
0.515625 	-1 	0.5 	39.6025 	-0.0340914 	-9.67018e-19
0.53125 	-1 	0.5 	39.6011 	-0.0329478 	-2.82371e-18
0.546875 	-1 	0.5 	39.5998 	-0.0320076 	-2.93137e-18
0.5625 	-1 	0.5 	39.5985 	-0.0315345 	-1.75707e-19
0.578125 	-1 	0.5 	39.5963 	-0.0310116 	7.77e-19
0.59375 	-1 	0.5 	39.5943 	-0.0302917 	-2.6665e-18
0.609375 	-1 	0.5 	39.5921 	-0.0295497 	-1.29733e-18
0.625 	-1 	0.5 	39.5895 	-0.0292287 	-9.37677e-19
0.640625 	-1 	0.5 	39.5871 	-0.0289485 	-2.9298e-19
0.65625 	-1 	0.5 	39.5852 	-0.0292902 	5.12604e-19
0.671875 	-1 	0.5 	39.5831 	-0.0301991 	4.06584e-18
0.6875 	-1 	0.5 	39.5808 	-0.0310235 	5.35448e-18
0.703125 	-1 	0.5 	39.5788 	-0.0321806 	-8.74936e-19
0.71875 	-1 	0.5 	39.5757 	-0.033028 	3.53215e-19
0.734375 	-1 	0.5 	39.5729 	-0.0332288 	1.44907e-18
0.75 	-1 	0.5 	39.5702 	-0.0353199 	-5.20994e-18
0.765625 	-1 	0.5 	39.5677 	-0.0373137 	-3.56757e-18
0.78125 	-1 	0.5 	39.5649 	-0.0394 	1.34296e-18
0.796875 	-1 	0.5 	39.5621 	-0.0413197 	4.30778e-18
0.8125 	-1 	0.5 	39.5595 	-0.0441109 	1.44291e-18
0.828125 	-1 	0.5 	39.557 	-0.0466264 	-2.25498e-18
0.84375 	-1 	0.5 	39.5546 	-0.0498302 	-2.82362e-18
0.859375 	-1 	0.5 	39.5523 	-0.0524796 	-8.61727e-19
0.875 	-1 	0.5 	39.5496 	-0.0552619 	8.09261e-19
0.890625 	-1 	0.5 	39.5471 	-0.0584657 	-1.19831e-19
0.90625 	-1 	0.5 	39.5452 	-0.0619058 	6.01012e-19
0.921875 	-1 	0.5 	39.5428 	-0.0650427 	-1.39746e-19
0.9375 	-1 	0.5 	39.5408 	-0.0682615 	-8.16574e-19
0.953125 	-1 	0.5 	39.5388 	-0.0720746 	9.84825e-19
0.96875 	-1 	0.5 	39.5373 	-0.0763026 	3.15353e-19
0.984375 	-1 	0.5 	39.5354 	-0.081203 	-7.92818e-19
1 	-1 	0.5 	39.5346 	-0.0866673 	-6.14534e-18
1.01562 	-1 	0.5 	39.5326 	-0.0904415 	1.23828e-18
1.03125 	-1 	0.5 	39.5317 	-0.0943844 	5.24762e-18
1.04688 	-1 	0.5 	39.5302 	-0.0984878 	-4.91524e-19
1.0625 	-1 	0.5 	39.5297 	-0.10285 	-1.16529e-18
1.07812 	-1 	0.5 	39.5293 	-0.108516 	3.15186e-21
1.09375 	-1 	0.5 	39.5287 	-0.113671 	3.03571e-19
1.10938 	-1 	0.5 	39.5284 	-0.117753 	3.99494e-19
1.125 	-1 	0.5 	39.5284 	-0.122527 	1.21416e-18
1.14062 	-1 	0.5 	39.5284 	-0.12857 	6.23973e-18
1.15625 	-1 	0.5 	39.5288 	-0.133754 	7.92897e-18
1.17188 	-1 	0.5 	39.5299 	-0.137934 	3.2905e-18
1.1875 	-1 	0.5 	39.5309 	-0.142229 	-1.42102e-18
1.20312 	-1 	0.5 	39.5315 	-0.147565 	3.27981e-18
1.21875 	-1 	0.5 	39.532 	-0.15312 	6.77524e-18
1.23438 	-1 	0.5 	39.5325 	-0.158389 	7.03132e-18
1.25 	-1 	0.5 	39.5335 	-0.163113 	-2.6112e-18
1.26562 	-1 	0.5 	39.5352 	-0.168396 	-3.12473e-18
1.28125 	-1 	0.5 	39.5366 	-0.173726 	3.2377e-18
1.29688 	-1 	0.5 	39.5381 	-0.179502 	2.11547e-18
1.3125 	-1 	0.5 	39.5403 	-0.184856 	4.77801e-19
1.32812 	-1 	0.5 	39.5424 	-0.189673 	5.23128e-18
1.34375 	-1 	0.5 	39.5446 	-0.19409 	9.56549e-18
1.35938 	-1 	0.5 	39.5466 	-0.198727 	-3.52705e-19
1.375 	-1 	0.5 	39.5495 	-0.203129 	-9.59418e-18
1.39062 	-1 	0.5 	39.5523 	-0.208194 	-4.51171e-18
1.40625 	-1 	0.5 	39.555 	-0.212772 	2.13812e-18
1.42188 	-1 	0.5 	39.5577 	-0.217327 	-1.06794e-18
1.4375 	-1 	0.5 	39.5608 	-0.221673 	-7.075e-18
1.45312 	-1 	0.5 	39.564 	-0.226096 	-6.50049e-18
1.46875 	-1 	0.5 	39.5673 	-0.230543 	-3.72814e-18
1.48438 	-1 	0.5 	39.5706 	-0.234825 	1.72102e-19
-0.5 	-0.984375 	0.5 	39.4499 	0.103684 	-1.84009e-19
-0.484375 	-0.984375 	0.5 	39.4496 	0.0976397 	-1.7719e-18
-0.46875 	-0.984375 	0.5 	39.4496 	0.0907579 	-2.6247e-18
-0.453125 	-0.984375 	0.5 	39.4494 	0.0832618 	-1.51682e-18
-0.4375 	-0.984375 	0.5 	39.4495 	0.0762467 	-1.09469e-18
-0.421875 	-0.984375 	0.5 	39.4498 	0.0699303 	-1.25298e-19
-0.40625 	-0.984375 	0.5 	39.45 	0.063725 	7.6257e-19
-0.390625 	-0.984375 	0.5 	39.4502 	0.0584277 	1.03049e-18
-0.375 	-0.984375 	0.5 	39.4512 	0.0522496 	2.70403e-18
-0.359375 	-0.984375 	0.5 	39.4524 	0.0457077 	1.24482e-18
-0.34375 	-0.984375 	0.5 	39.4536 	0.0391063 	2.62985e-19
-0.328125 	-0.984375 	0.5 	39.4553 	0.0326037 	-1.9916e-19
-0.3125 	-0.984375 	0.5 	39.4574 	0.0263507 	-3.15892e-20
-0.296875 	-0.984375 	0.5 	39.4595 	0.0200937 	1.32848e-19
-0.28125 	-0.984375 	0.5 	39.4616 	0.0135873 	-3.10164e-21
-0.265625 	-0.984375 	0.5 	39.4639 	0.00698465 	2.73899e-18
-0.25 	-0.984375 	0.5 	39.4665 	0.00143023 	3.58072e-18
-0.234375 	-0.984375 	0.5 	39.4695 	-0.00273069 	1.42495e-18
-0.21875 	-0.984375 	0.5 	39.4718 	-0.00868915 	6.57756e-19
-0.203125 	-0.984375 	0.5 	39.4748 	-0.0141755 	1.32153e-19
-0.1875 	-0.984375 	0.5 	39.4782 	-0.0196161 	-3.61061e-20
-0.171875 	-0.984375 	0.5 	39.4821 	-0.0244688 	7.04382e-19
-0.15625 	-0.984375 	0.5 	39.4861 	-0.0294588 	1.928e-18
-0.140625 	-0.984375 	0.5 	39.49 	-0.0343676 	2.05976e-18
-0.125 	-0.984375 	0.5 	39.4939 	-0.0383969 	1.82101e-19
-0.109375 	-0.984375 	0.5 	39.4982 	-0.0428076 	-2.51081e-18
-0.09375 	-0.984375 	0.5 	39.5032 	-0.0463502 	-8.89859e-19
-0.078125 	-0.984375 	0.5 	39.5071 	-0.0493478 	1.04732e-18
-0.0625 	-0.984375 	0.5 	39.5117 	-0.0530751 	-6.36747e-20
-0.046875 	-0.984375 	0.5 	39.5163 	-0.0562062 	2.96149e-19
-0.03125 	-0.984375 	0.5 	39.5211 	-0.0585406 	-4.26604e-20
-0.015625 	-0.984375 	0.5 	39.5254 	-0.0610135 	-3.03403e-19
0 	-0.984375 	0.5 	39.5303 	-0.0626865 	-1.19014e-20
0.015625 	-0.984375 	0.5 	39.5352 	-0.0645511 	7.08742e-19
0.03125 	-0.984375 	0.5 	39.5396 	-0.066175 	-1.202e-18
0.046875 	-0.984375 	0.5 	39.5445 	-0.0681855 	1.46212e-18
0.0625 	-0.984375 	0.5 	39.549 	-0.0695054 	-3.64734e-19
0.078125 	-0.984375 	0.5 	39.5535 	-0.0702389 	-2.75601e-18
0.09375 	-0.984375 	0.5 	39.5575 	-0.0701955 	6.1035e-19
0.109375 	-0.984375 	0.5 	39.5619 	-0.0702263 	1.17202e-18
0.125 	-0.984375 	0.5 	39.5661 	-0.0703211 	1.08934e-19
0.140625 	-0.984375 	0.5 	39.5697 	-0.0705699 	3.05276e-19
0.15625 	-0.984375 	0.5 	39.5745 	-0.0691593 	-4.13703e-20
0.171875 	-0.984375 	0.5 	39.5781 	-0.0691788 	-1.07117e-18
0.1875 	-0.984375 	0.5 	39.5812 	-0.0685707 	-1.4936e-18
0.203125 	-0.984375 	0.5 	39.5843 	-0.0674893 	9.11524e-19
0.21875 	-0.984375 	0.5 	39.5876 	-0.066165 	1.44929e-18
0.234375 	-0.984375 	0.5 	39.5905 	-0.0654164 	1.56138e-18
0.25 	-0.984375 	0.5 	39.5933 	-0.0634871 	3.75932e-18
0.265625 	-0.984375 	0.5 	39.5962 	-0.0619878 	-1.46695e-18
0.28125 	-0.984375 	0.5 	39.5981 	-0.0606004 	-4.80802e-18
0.296875 	-0.984375 	0.5 	39.5998 	-0.0584096 	1.07047e-18
0.3125 	-0.984375 	0.5 	39.6011 	-0.0561672 	2.13055e-18
0.328125 	-0.984375 	0.5 	39.6032 	-0.0543585 	1.08154e-18
0.34375 	-0.984375 	0.5 	39.6047 	-0.0527541 	1.09733e-18
0.359375 	-0.984375 	0.5 	39.6053 	-0.0510828 	8.92455e-19
0.375 	-0.984375 	0.5 	39.6063 	-0.0489649 	1.52421e-18
0.390625 	-0.984375 	0.5 	39.6071 	-0.0469429 	1.25934e-19
0.40625 	-0.984375 	0.5 	39.6072 	-0.0448044 	-9.52979e-19
0.421875 	-0.984375 	0.5 	39.6074 	-0.0430129 	-4.9093e-19
0.4375 	-0.984375 	0.5 	39.6072 	-0.0410493 	-1.52934e-18
0.453125 	-0.984375 	0.5 	39.607 	-0.0390695 	-4.80633e-19
0.46875 	-0.984375 	0.5 	39.6059 	-0.0378438 	3.80572e-18
0.484375 	-0.984375 	0.5 	39.6054 	-0.0362495 	3.96354e-19
0.5 	-0.984375 	0.5 	39.6045 	-0.0339414 	-2.672e-19
0.515625 	-0.984375 	0.5 	39.603 	-0.0329921 	-1.35595e-19
0.53125 	-0.984375 	0.5 	39.6015 	-0.0319847 	-1.76561e-19
0.546875 	-0.984375 	0.5 	39.5999 	-0.0309674 	-2.29616e-19
0.5625 	-0.984375 	0.5 	39.5981 	-0.0296624 	2.37872e-19
0.578125 	-0.984375 	0.5 	39.596 	-0.0290328 	-1.61785e-18
0.59375 	-0.984375 	0.5 	39.594 	-0.0283252 	-4.23896e-18
0.609375 	-0.984375 	0.5 	39.5916 	-0.0275607 	2.55457e-20
0.625 	-0.984375 	0.5 	39.5894 	-0.0270492 	-1.09282e-18
0.640625 	-0.984375 	0.5 	39.5862 	-0.0271212 	-5.01594e-19
0.65625 	-0.984375 	0.5 	39.5836 	-0.0269237 	2.1252e-19
0.671875 	-0.984375 	0.5 	39.5816 	-0.0277495 	2.7463e-18
0.6875 	-0.984375 	0.5 	39.5796 	-0.0288099 	6.82198e-19
0.703125 	-0.984375 	0.5 	39.5771 	-0.0294343 	-4.42562e-18
0.71875 	-0.984375 	0.5 	39.574 	-0.0303916 	-4.21571e-18
0.734375 	-0.984375 	0.5 	39.5707 	-0.0314571 	-2.27733e-18
0.75 	-0.984375 	0.5 	39.5678 	-0.0326606 	-2.5911e-18
0.765625 	-0.984375 	0.5 	39.5647 	-0.0346568 	8.74303e-19
0.78125 	-0.984375 	0.5 	39.5614 	-0.0366552 	2.94746e-18
0.796875 	-0.984375 	0.5 	39.5585 	-0.0387604 	2.54738e-18
0.8125 	-0.984375 	0.5 	39.5562 	-0.0409296 	5.66565e-18
0.828125 	-0.984375 	0.5 	39.5534 	-0.0438913 	-2.36462e-19
0.84375 	-0.984375 	0.5 	39.5505 	-0.0466209 	4.89675e-19
0.859375 	-0.984375 	0.5 	39.547 	-0.0493956 	4.98816e-18
0.875 	-0.984375 	0.5 	39.5456 	-0.0523338 	5.84628e-19
0.890625 	-0.984375 	0.5 	39.5425 	-0.0557224 	-2.39386e-18
0.90625 	-0.984375 	0.5 	39.5406 	-0.0597432 	1.89328e-18
0.921875 	-0.984375 	0.5 	39.5383 	-0.0629636 	1.73896e-18
0.9375 	-0.984375 	0.5 	39.5359 	-0.0660723 	-4.88148e-19
0.953125 	-0.984375 	0.5 	39.5338 	-0.0703792 	2.8968e-19
0.96875 	-0.984375 	0.5 	39.5323 	-0.0749425 	-9.45099e-19
0.984375 	-0.984375 	0.5 	39.5303 	-0.0798417 	-2.05259e-18
1 	-0.984375 	0.5 	39.5299 	-0.085617 	-1.01447e-17
1.01562 	-0.984375 	0.5 	39.5283 	-0.0901343 	-8.12044e-18
1.03125 	-0.984375 	0.5 	39.526 	-0.0938684 	1.15724e-19
1.04688 	-0.984375 	0.5 	39.5249 	-0.0977236 	-7.97058e-19
1.0625 	-0.984375 	0.5 	39.5244 	-0.103076 	-1.12959e-19
1.07812 	-0.984375 	0.5 	39.5238 	-0.108521 	-1.25025e-20
1.09375 	-0.984375 	0.5 	39.5232 	-0.113654 	3.03008e-19
1.10938 	-0.984375 	0.5 	39.5227 	-0.118468 	8.3798e-19
1.125 	-0.984375 	0.5 	39.5226 	-0.12304 	1.43999e-18
1.14062 	-0.984375 	0.5 	39.5228 	-0.128625 	5.24942e-18
1.15625 	-0.984375 	0.5 	39.5239 	-0.132896 	1.18576e-18
1.17188 	-0.984375 	0.5 	39.5242 	-0.137882 	-3.19277e-18
1.1875 	-0.984375 	0.5 	39.5247 	-0.142942 	-1.73063e-18
1.20312 	-0.984375 	0.5 	39.5252 	-0.148527 	-3.70843e-19
1.21875 	-0.984375 	0.5 	39.5263 	-0.153529 	9.53879e-20
1.23438 	-0.984375 	0.5 	39.5269 	-0.158913 	2.58898e-18
1.25 	-0.984375 	0.5 	39.5278 	-0.164046 	-1.22558e-18
1.26562 	-0.984375 	0.5 	39.5295 	-0.169522 	3.54127e-18
1.28125 	-0.984375 	0.5 	39.5318 	-0.175325 	8.09689e-18
1.29688 	-0.984375 	0.5 	39.5325 	-0.181075 	1.21943e-18
1.3125 	-0.984375 	0.5 	39.535 	-0.186205 	-3.41124e-18
1.32812 	-0.984375 	0.5 	39.537 	-0.191797 	-1.17166e-18
1.34375 	-0.984375 	0.5 	39.539 	-0.196827 	2.92494e-18
1.35938 	-0.984375 	0.5 	39.5413 	-0.201347 	-2.9697e-18
1.375 	-0.984375 	0.5 	39.5442 	-0.206024 	-6.27241e-18
1.39062 	-0.984375 	0.5 	39.5471 	-0.21089 	-5.4854e-18
1.40625 	-0.984375 	0.5 	39.5499 	-0.215779 	-4.2291e-18
1.42188 	-0.984375 	0.5 	39.5528 	-0.220411 	-3.16283e-18
1.4375 	-0.984375 	0.5 	39.556 	-0.224835 	-2.47738e-18
1.45312 	-0.984375 	0.5 	39.5593 	-0.229288 	-2.18296e-18
1.46875 	-0.984375 	0.5 	39.5624 	-0.233817 	-2.87786e-18
1.48438 	-0.984375 	0.5 	39.5658 	-0.238174 	-2.75445e-18
-0.5 	-0.96875 	0.5 	39.442 	0.104365 	-1.37939e-20
-0.484375 	-0.96875 	0.5 	39.4415 	0.0978995 	-1.26314e-19
-0.46875 	-0.96875 	0.5 	39.4417 	0.0920833 	-3.33913e-18
-0.453125 	-0.96875 	0.5 	39.4415 	0.0839341 	-1.38458e-18
-0.4375 	-0.96875 	0.5 	39.4411 	0.0770176 	-7.15876e-19
-0.421875 	-0.96875 	0.5 	39.4411 	0.0685504 	-3.73707e-18
-0.40625 	-0.96875 	0.5 	39.4414 	0.0630915 	-1.69431e-18
-0.390625 	-0.96875 	0.5 	39.4422 	0.0580645 	1.71593e-18
-0.375 	-0.96875 	0.5 	39.4433 	0.0506536 	9.08718e-19
-0.359375 	-0.96875 	0.5 	39.4441 	0.0439312 	2.46253e-18
-0.34375 	-0.96875 	0.5 	39.4454 	0.0371937 	1.54399e-18
-0.328125 	-0.96875 	0.5 	39.4472 	0.0309793 	-1.32007e-19
-0.3125 	-0.96875 	0.5 	39.4499 	0.0239598 	-1.37723e-18
-0.296875 	-0.96875 	0.5 	39.452 	0.017958 	-1.01273e-18
-0.28125 	-0.96875 	0.5 	39.4543 	0.0106698 	-2.37185e-18
-0.265625 	-0.96875 	0.5 	39.4571 	0.00377686 	-2.39659e-18
-0.25 	-0.96875 	0.5 	39.4593 	-0.00253304 	3.75752e-18
-0.234375 	-0.96875 	0.5 	39.4625 	-0.00632493 	8.14364e-19
-0.21875 	-0.96875 	0.5 	39.4645 	-0.0124269 	-2.62713e-20
-0.203125 	-0.96875 	0.5 	39.4683 	-0.0180963 	-8.45571e-19
-0.1875 	-0.96875 	0.5 	39.4717 	-0.0238666 	-8.4465e-19
-0.171875 	-0.96875 	0.5 	39.4762 	-0.0291284 	1.92691e-18
-0.15625 	-0.96875 	0.5 	39.4803 	-0.0339726 	2.49751e-18
-0.140625 	-0.96875 	0.5 	39.4842 	-0.0381751 	2.18513e-18
-0.125 	-0.96875 	0.5 	39.4888 	-0.0424406 	-5.9865e-19
-0.109375 	-0.96875 	0.5 	39.4938 	-0.0466016 	-5.81736e-19
-0.09375 	-0.96875 	0.5 	39.4986 	-0.0508147 	-7.91485e-19
-0.078125 	-0.96875 	0.5 	39.5031 	-0.0545819 	-7.98361e-19
-0.0625 	-0.96875 	0.5 	39.5077 	-0.0579069 	-4.28417e-19
-0.046875 	-0.96875 	0.5 	39.5123 	-0.0610566 	-6.76233e-20
-0.03125 	-0.96875 	0.5 	39.5172 	-0.0629641 	2.28352e-19
-0.015625 	-0.96875 	0.5 	39.5216 	-0.0653219 	8.23158e-21
0 	-0.96875 	0.5 	39.5269 	-0.0671778 	2.78174e-19
0.015625 	-0.96875 	0.5 	39.5319 	-0.0690459 	9.47743e-19
0.03125 	-0.96875 	0.5 	39.537 	-0.0708614 	1.75246e-18
0.046875 	-0.96875 	0.5 	39.5422 	-0.0723102 	1.38189e-18
0.0625 	-0.96875 	0.5 	39.5473 	-0.0738061 	1.46292e-18
0.078125 	-0.96875 	0.5 	39.5515 	-0.0746355 	-8.28047e-19
0.09375 	-0.96875 	0.5 	39.5555 	-0.0747558 	1.86749e-18
0.109375 	-0.96875 	0.5 	39.5602 	-0.0746845 	1.27955e-18
0.125 	-0.96875 	0.5 	39.5648 	-0.0746132 	6.91608e-19
0.140625 	-0.96875 	0.5 	39.5691 	-0.0742053 	-1.18319e-19
0.15625 	-0.96875 	0.5 	39.5732 	-0.0736527 	-1.43892e-18
0.171875 	-0.96875 	0.5 	39.5773 	-0.073103 	-2.80406e-18
0.1875 	-0.96875 	0.5 	39.5811 	-0.0717753 	-8.4257e-19
0.203125 	-0.96875 	0.5 	39.5843 	-0.0705645 	4.36433e-19
0.21875 	-0.96875 	0.5 	39.5875 	-0.0693394 	2.12403e-18
0.234375 	-0.96875 	0.5 	39.5906 	-0.0681095 	2.5479e-18
0.25 	-0.96875 	0.5 	39.5937 	-0.0661281 	3.6252e-18
0.265625 	-0.96875 	0.5 	39.5967 	-0.0642945 	2.86226e-18
0.28125 	-0.96875 	0.5 	39.5994 	-0.0628655 	-5.47801e-19
0.296875 	-0.96875 	0.5 	39.6007 	-0.0606121 	9.56452e-19
0.3125 	-0.96875 	0.5 	39.6024 	-0.058593 	9.30761e-19
0.328125 	-0.96875 	0.5 	39.604 	-0.056088 	2.0128e-18
0.34375 	-0.96875 	0.5 	39.6057 	-0.0538232 	1.43257e-18
0.359375 	-0.96875 	0.5 	39.6066 	-0.0513965 	1.12329e-18
0.375 	-0.96875 	0.5 	39.6078 	-0.0491182 	1.74754e-18
0.390625 	-0.96875 	0.5 	39.6083 	-0.0471746 	-6.64647e-19
0.40625 	-0.96875 	0.5 	39.6083 	-0.0449596 	-1.52497e-18
0.421875 	-0.96875 	0.5 	39.6085 	-0.0428468 	-1.43829e-18
0.4375 	-0.96875 	0.5 	39.6078 	-0.0406117 	-3.18553e-18
0.453125 	-0.96875 	0.5 	39.6076 	-0.0385946 	-2.51237e-18
0.46875 	-0.96875 	0.5 	39.6069 	-0.0372527 	1.42578e-18
0.484375 	-0.96875 	0.5 	39.6062 	-0.0351143 	-8.11506e-19
0.5 	-0.96875 	0.5 	39.605 	-0.0327228 	-1.74984e-19
0.515625 	-0.96875 	0.5 	39.6036 	-0.0316519 	-1.227e-19
0.53125 	-0.96875 	0.5 	39.6021 	-0.0306567 	-1.4861e-19
0.546875 	-0.96875 	0.5 	39.6005 	-0.0291866 	-1.02785e-18
0.5625 	-0.96875 	0.5 	39.5981 	-0.0272906 	2.17022e-19
0.578125 	-0.96875 	0.5 	39.5959 	-0.0267304 	2.04297e-18
0.59375 	-0.96875 	0.5 	39.5935 	-0.0262074 	1.10155e-18
0.609375 	-0.96875 	0.5 	39.5912 	-0.0256047 	5.25146e-19
0.625 	-0.96875 	0.5 	39.5885 	-0.0253798 	2.46425e-19
0.640625 	-0.96875 	0.5 	39.5857 	-0.0251956 	8.7155e-20
0.65625 	-0.96875 	0.5 	39.5829 	-0.0250137 	-6.55105e-20
0.671875 	-0.96875 	0.5 	39.5802 	-0.0253 	1.42675e-18
0.6875 	-0.96875 	0.5 	39.5777 	-0.0261686 	-1.1904e-18
0.703125 	-0.96875 	0.5 	39.5745 	-0.0272002 	-3.71194e-19
0.71875 	-0.96875 	0.5 	39.5716 	-0.0283154 	-6.93347e-19
0.734375 	-0.96875 	0.5 	39.5687 	-0.0290912 	-1.05677e-18
0.75 	-0.96875 	0.5 	39.5652 	-0.0298171 	-1.54799e-18
0.765625 	-0.96875 	0.5 	39.5616 	-0.0317844 	-1.66377e-18
0.78125 	-0.96875 	0.5 	39.5582 	-0.0340407 	4.08554e-19
0.796875 	-0.96875 	0.5 	39.555 	-0.0361214 	2.15628e-18
0.8125 	-0.96875 	0.5 	39.5524 	-0.0383923 	3.12553e-19
0.828125 	-0.96875 	0.5 	39.5497 	-0.0404456 	-2.61017e-18
0.84375 	-0.96875 	0.5 	39.5469 	-0.0434334 	-1.55772e-18
0.859375 	-0.96875 	0.5 	39.5436 	-0.0465161 	2.11588e-18
0.875 	-0.96875 	0.5 	39.5414 	-0.049522 	-2.32268e-18
0.890625 	-0.96875 	0.5 	39.5381 	-0.0531161 	-2.54575e-18
0.90625 	-0.96875 	0.5 	39.5351 	-0.0569316 	5.99055e-19
0.921875 	-0.96875 	0.5 	39.5332 	-0.0604129 	-1.74988e-18
0.9375 	-0.96875 	0.5 	39.5314 	-0.0640289 	-3.71415e-18
0.953125 	-0.96875 	0.5 	39.5292 	-0.0679407 	1.49453e-18
0.96875 	-0.96875 	0.5 	39.527 	-0.0730982 	-3.88319e-19
0.984375 	-0.96875 	0.5 	39.5254 	-0.0785097 	-3.78605e-18
1 	-0.96875 	0.5 	39.524 	-0.0831925 	-3.09273e-18
1.01562 	-0.96875 	0.5 	39.5224 	-0.0877967 	-1.60725e-18
1.03125 	-0.96875 	0.5 	39.5208 	-0.0924773 	-5.13866e-19
1.04688 	-0.96875 	0.5 	39.5195 	-0.0970058 	2.89842e-19
1.0625 	-0.96875 	0.5 	39.5181 	-0.103256 	2.05736e-18
1.07812 	-0.96875 	0.5 	39.5178 	-0.108277 	1.87719e-18
1.09375 	-0.96875 	0.5 	39.5174 	-0.113297 	1.69701e-18
1.10938 	-0.96875 	0.5 	39.5171 	-0.118317 	1.51684e-18
1.125 	-0.96875 	0.5 	39.5168 	-0.123373 	2.25561e-19
1.14062 	-0.96875 	0.5 	39.5168 	-0.128639 	-4.27698e-18
1.15625 	-0.96875 	0.5 	39.5168 	-0.133906 	-8.77951e-18
1.17188 	-0.96875 	0.5 	39.5171 	-0.139065 	-1.01877e-17
1.1875 	-0.96875 	0.5 	39.5183 	-0.143825 	-5.08722e-20
1.20312 	-0.96875 	0.5 	39.5182 	-0.150024 	-5.51254e-20
1.21875 	-0.96875 	0.5 	39.5192 	-0.155198 	3.36695e-19
1.23438 	-0.96875 	0.5 	39.5206 	-0.159844 	9.55556e-19
1.25 	-0.96875 	0.5 	39.5219 	-0.165419 	5.6856e-20
1.26562 	-0.96875 	0.5 	39.5238 	-0.171091 	1.957e-18
1.28125 	-0.96875 	0.5 	39.5258 	-0.176887 	4.99957e-18
1.29688 	-0.96875 	0.5 	39.5269 	-0.182643 	3.43304e-19
1.3125 	-0.96875 	0.5 	39.5294 	-0.187837 	-3.19251e-18
1.32812 	-0.96875 	0.5 	39.5314 	-0.193344 	-2.19286e-18
1.34375 	-0.96875 	0.5 	39.5335 	-0.198851 	-1.19322e-18
1.35938 	-0.96875 	0.5 	39.536 	-0.204214 	-6.12564e-19
1.375 	-0.96875 	0.5 	39.5389 	-0.209061 	-5.21572e-19
1.39062 	-0.96875 	0.5 	39.5418 	-0.213907 	-4.30581e-19
1.40625 	-0.96875 	0.5 	39.5447 	-0.218714 	-5.9217e-19
1.42188 	-0.96875 	0.5 	39.5477 	-0.22389 	-1.66908e-18
1.4375 	-0.96875 	0.5 	39.5508 	-0.228664 	-6.32028e-18
1.45312 	-0.96875 	0.5 	39.5539 	-0.233231 	-7.68488e-18
1.46875 	-0.96875 	0.5 	39.5573 	-0.237534 	-4.3994e-18
1.48438 	-0.96875 	0.5 	39.561 	-0.241537 	-5.92598e-18
-0.5 	-0.953125 	0.5 	39.435 	0.105324 	-4.4578e-20
-0.484375 	-0.953125 	0.5 	39.4337 	0.0985911 	8.2869e-20
-0.46875 	-0.953125 	0.5 	39.4336 	0.0919904 	-9.12263e-19
-0.453125 	-0.953125 	0.5 	39.4337 	0.0846005 	2.25076e-21
-0.4375 	-0.953125 	0.5 	39.433 	0.077813 	6.45538e-19
-0.421875 	-0.953125 	0.5 	39.4321 	0.0711277 	1.28786e-18
-0.40625 	-0.953125 	0.5 	39.4329 	0.0643783 	2.06411e-18
-0.390625 	-0.953125 	0.5 	39.4341 	0.0571384 	2.2287e-18
-0.375 	-0.953125 	0.5 	39.4349 	0.049931 	5.18521e-19
-0.359375 	-0.953125 	0.5 	39.4365 	0.0424296 	1.93956e-19
-0.34375 	-0.953125 	0.5 	39.4375 	0.0352703 	1.06821e-18
-0.328125 	-0.953125 	0.5 	39.4391 	0.028983 	-2.91429e-19
-0.3125 	-0.953125 	0.5 	39.4416 	0.0226784 	-8.41674e-19
-0.296875 	-0.953125 	0.5 	39.4444 	0.015605 	-2.16056e-18
-0.28125 	-0.953125 	0.5 	39.4469 	0.0080199 	-4.161e-18
-0.265625 	-0.953125 	0.5 	39.4498 	0.00136695 	-3.66626e-18
-0.25 	-0.953125 	0.5 	39.4527 	-0.0052342 	-3.05934e-18
-0.234375 	-0.953125 	0.5 	39.4554 	-0.00991918 	2.03783e-19
-0.21875 	-0.953125 	0.5 	39.4586 	-0.016323 	-1.09331e-18
-0.203125 	-0.953125 	0.5 	39.4618 	-0.0227673 	-2.04334e-18
-0.1875 	-0.953125 	0.5 	39.4652 	-0.0282295 	-1.60769e-18
-0.171875 	-0.953125 	0.5 	39.4692 	-0.0327581 	8.66788e-19
-0.15625 	-0.953125 	0.5 	39.4732 	-0.0373788 	1.1025e-18
-0.140625 	-0.953125 	0.5 	39.4792 	-0.0422615 	4.29348e-18
-0.125 	-0.953125 	0.5 	39.4833 	-0.0474653 	2.43576e-19
-0.109375 	-0.953125 	0.5 	39.488 	-0.0510204 	-2.36311e-18
-0.09375 	-0.953125 	0.5 	39.4931 	-0.0554701 	-1.3547e-18
-0.078125 	-0.953125 	0.5 	39.4987 	-0.0594979 	-5.82536e-19
-0.0625 	-0.953125 	0.5 	39.5029 	-0.0622923 	-3.3454e-19
-0.046875 	-0.953125 	0.5 	39.5079 	-0.0648916 	-1.51136e-19
-0.03125 	-0.953125 	0.5 	39.5129 	-0.067491 	3.22672e-20
-0.015625 	-0.953125 	0.5 	39.5183 	-0.0701119 	1.37153e-19
0 	-0.953125 	0.5 	39.5238 	-0.0730183 	1.53422e-19
0.015625 	-0.953125 	0.5 	39.5293 	-0.0755946 	3.55388e-19
0.03125 	-0.953125 	0.5 	39.5344 	-0.0762299 	3.34036e-18
0.046875 	-0.953125 	0.5 	39.5396 	-0.077077 	7.25333e-18
0.0625 	-0.953125 	0.5 	39.5446 	-0.0782718 	3.46197e-18
0.078125 	-0.953125 	0.5 	39.5499 	-0.0791647 	1.72094e-19
0.09375 	-0.953125 	0.5 	39.5543 	-0.0792542 	1.41579e-18
0.109375 	-0.953125 	0.5 	39.5589 	-0.0793393 	2.09826e-18
0.125 	-0.953125 	0.5 	39.564 	-0.0794026 	8.87421e-19
0.140625 	-0.953125 	0.5 	39.5687 	-0.0785215 	5.99578e-19
0.15625 	-0.953125 	0.5 	39.5729 	-0.0782997 	-5.14559e-18
0.171875 	-0.953125 	0.5 	39.5772 	-0.0773045 	-1.39051e-18
0.1875 	-0.953125 	0.5 	39.5812 	-0.0756186 	-2.32039e-18
0.203125 	-0.953125 	0.5 	39.5845 	-0.0737207 	9.45523e-19
0.21875 	-0.953125 	0.5 	39.5878 	-0.0727698 	1.19579e-18
0.234375 	-0.953125 	0.5 	39.5915 	-0.0710935 	2.51165e-18
0.25 	-0.953125 	0.5 	39.5949 	-0.0689957 	4.01025e-18
0.265625 	-0.953125 	0.5 	39.5979 	-0.0671707 	2.90411e-18
0.28125 	-0.953125 	0.5 	39.6006 	-0.0650496 	8.45796e-20
0.296875 	-0.953125 	0.5 	39.6024 	-0.0621285 	7.71932e-19
0.3125 	-0.953125 	0.5 	39.6037 	-0.0593549 	2.77866e-18
0.328125 	-0.953125 	0.5 	39.6062 	-0.0578251 	4.99091e-19
0.34375 	-0.953125 	0.5 	39.6071 	-0.0546738 	4.76246e-19
0.359375 	-0.953125 	0.5 	39.6081 	-0.0529348 	2.33339e-18
0.375 	-0.953125 	0.5 	39.609 	-0.0502167 	8.86734e-19
0.390625 	-0.953125 	0.5 	39.6096 	-0.0473722 	8.06646e-19
0.40625 	-0.953125 	0.5 	39.6098 	-0.0452555 	2.12818e-18
0.421875 	-0.953125 	0.5 	39.61 	-0.0426005 	-2.13679e-18
0.4375 	-0.953125 	0.5 	39.6093 	-0.0403477 	-2.95298e-18
0.453125 	-0.953125 	0.5 	39.6085 	-0.0383621 	-2.10646e-18
0.46875 	-0.953125 	0.5 	39.608 	-0.0365697 	-1.64845e-18
0.484375 	-0.953125 	0.5 	39.6068 	-0.0338323 	-6.53644e-19
0.5 	-0.953125 	0.5 	39.6056 	-0.0315043 	-8.27673e-20
0.515625 	-0.953125 	0.5 	39.6043 	-0.0303116 	-1.09805e-19
0.53125 	-0.953125 	0.5 	39.6027 	-0.0289957 	-7.01781e-19
0.546875 	-0.953125 	0.5 	39.6007 	-0.0269616 	-2.61782e-18
0.5625 	-0.953125 	0.5 	39.5981 	-0.025133 	1.66557e-19
0.578125 	-0.953125 	0.5 	39.5958 	-0.0243173 	2.01716e-18
0.59375 	-0.953125 	0.5 	39.5934 	-0.0236788 	8.54907e-19
0.609375 	-0.953125 	0.5 	39.5908 	-0.0231233 	8.9064e-19
0.625 	-0.953125 	0.5 	39.588 	-0.0238048 	5.75723e-18
0.640625 	-0.953125 	0.5 	39.5851 	-0.0239094 	7.03306e-18
0.65625 	-0.953125 	0.5 	39.5823 	-0.0230076 	1.94948e-18
0.671875 	-0.953125 	0.5 	39.5789 	-0.0222647 	5.62222e-19
0.6875 	-0.953125 	0.5 	39.5756 	-0.0230118 	6.77223e-19
0.703125 	-0.953125 	0.5 	39.5726 	-0.0243449 	4.37345e-19
0.71875 	-0.953125 	0.5 	39.5698 	-0.0256915 	1.43342e-19
0.734375 	-0.953125 	0.5 	39.5667 	-0.0253549 	-3.55379e-19
0.75 	-0.953125 	0.5 	39.5628 	-0.0272601 	-4.32135e-19
0.765625 	-0.953125 	0.5 	39.5591 	-0.0284344 	-2.08812e-18
0.78125 	-0.953125 	0.5 	39.5556 	-0.0306744 	-1.12762e-18
0.796875 	-0.953125 	0.5 	39.5523 	-0.0328553 	3.47459e-19
0.8125 	-0.953125 	0.5 	39.5489 	-0.0356958 	4.58323e-18
0.828125 	-0.953125 	0.5 	39.546 	-0.0384259 	4.20245e-18
0.84375 	-0.953125 	0.5 	39.5431 	-0.0410471 	2.05611e-18
0.859375 	-0.953125 	0.5 	39.5402 	-0.0436419 	-4.37377e-20
0.875 	-0.953125 	0.5 	39.5373 	-0.0468242 	4.3825e-20
0.890625 	-0.953125 	0.5 	39.5344 	-0.0500455 	1.21344e-19
0.90625 	-0.953125 	0.5 	39.5311 	-0.0539999 	6.29746e-19
0.921875 	-0.953125 	0.5 	39.5289 	-0.0583612 	2.16932e-18
0.9375 	-0.953125 	0.5 	39.5271 	-0.0621656 	-2.10215e-18
0.953125 	-0.953125 	0.5 	39.5251 	-0.0659807 	8.98371e-19
0.96875 	-0.953125 	0.5 	39.523 	-0.0712103 	-1.25564e-18
0.984375 	-0.953125 	0.5 	39.52 	-0.076207 	-4.09635e-18
1 	-0.953125 	0.5 	39.5178 	-0.0815444 	-4.40326e-19
1.01562 	-0.953125 	0.5 	39.5161 	-0.0863338 	9.88109e-19
1.03125 	-0.953125 	0.5 	39.5153 	-0.0902912 	-1.46674e-19
1.04688 	-0.953125 	0.5 	39.5139 	-0.0961441 	-1.23591e-18
1.0625 	-0.953125 	0.5 	39.5129 	-0.10105 	1.34291e-18
1.07812 	-0.953125 	0.5 	39.5111 	-0.108078 	3.72231e-18
1.09375 	-0.953125 	0.5 	39.5108 	-0.113049 	3.4039e-18
1.10938 	-0.953125 	0.5 	39.511 	-0.117228 	-1.0091e-18
1.125 	-0.953125 	0.5 	39.5105 	-0.12335 	3.18966e-18
1.14062 	-0.953125 	0.5 	39.5108 	-0.129237 	2.88365e-18
1.15625 	-0.953125 	0.5 	39.5108 	-0.134655 	-3.20403e-18
1.17188 	-0.953125 	0.5 	39.5108 	-0.139949 	-8.5079e-18
1.1875 	-0.953125 	0.5 	39.5118 	-0.144868 	5.04593e-19
1.20312 	-0.953125 	0.5 	39.5122 	-0.15062 	6.47764e-19
1.21875 	-0.953125 	0.5 	39.5136 	-0.155414 	1.29793e-18
1.23438 	-0.953125 	0.5 	39.5144 	-0.161414 	2.15391e-18
1.25 	-0.953125 	0.5 	39.5155 	-0.167092 	-7.57914e-20
1.26562 	-0.953125 	0.5 	39.5178 	-0.173049 	-3.12313e-18
1.28125 	-0.953125 	0.5 	39.5196 	-0.178529 	-9.38614e-19
1.29688 	-0.953125 	0.5 	39.5213 	-0.184204 	-4.86961e-19
1.3125 	-0.953125 	0.5 	39.5235 	-0.189619 	-1.11627e-18
1.32812 	-0.953125 	0.5 	39.5258 	-0.195015 	-4.13376e-18
1.34375 	-0.953125 	0.5 	39.5276 	-0.200963 	-3.28724e-18
1.35938 	-0.953125 	0.5 	39.5306 	-0.207242 	3.7759e-19
1.375 	-0.953125 	0.5 	39.5336 	-0.21183 	9.06977e-19
1.39062 	-0.953125 	0.5 	39.5367 	-0.21682 	1.91459e-18
1.40625 	-0.953125 	0.5 	39.5392 	-0.221337 	-1.01296e-19
1.42188 	-0.953125 	0.5 	39.542 	-0.227146 	1.44282e-18
1.4375 	-0.953125 	0.5 	39.5459 	-0.232096 	-2.83601e-18
1.45312 	-0.953125 	0.5 	39.5488 	-0.236853 	-7.52538e-18
1.46875 	-0.953125 	0.5 	39.5523 	-0.241028 	-2.01227e-18
1.48438 	-0.953125 	0.5 	39.5563 	-0.244899 	-9.0975e-18
-0.5 	-0.9375 	0.5 	39.426 	0.105962 	-6.2457e-18
-0.484375 	-0.9375 	0.5 	39.4257 	0.0994724 	-1.56309e-18
-0.46875 	-0.9375 	0.5 	39.4251 	0.0922883 	9.30771e-19
-0.453125 	-0.9375 	0.5 	39.425 	0.0850882 	3.90545e-18
-0.4375 	-0.9375 	0.5 	39.4246 	0.0779285 	5.59146e-18
-0.421875 	-0.9375 	0.5 	39.4229 	0.0709467 	1.61587e-18
-0.40625 	-0.9375 	0.5 	39.4244 	0.0630582 	2.14268e-18
-0.390625 	-0.9375 	0.5 	39.4253 	0.0560321 	1.48559e-18
-0.375 	-0.9375 	0.5 	39.4263 	0.0488145 	4.17656e-19
-0.359375 	-0.9375 	0.5 	39.4279 	0.0414924 	-2.67776e-20
-0.34375 	-0.9375 	0.5 	39.4294 	0.0339522 	-3.25444e-19
-0.328125 	-0.9375 	0.5 	39.431 	0.0263485 	-8.42023e-19
-0.3125 	-0.9375 	0.5 	39.4331 	0.0191226 	-1.99455e-18
-0.296875 	-0.9375 	0.5 	39.4352 	0.0119348 	-3.06396e-18
-0.28125 	-0.9375 	0.5 	39.438 	0.00575963 	-1.91946e-18
-0.265625 	-0.9375 	0.5 	39.4395 	-0.00113649 	-2.26098e-18
-0.25 	-0.9375 	0.5 	39.4438 	-0.00713334 	-4.75823e-19
-0.234375 	-0.9375 	0.5 	39.4479 	-0.0131277 	1.28041e-18
-0.21875 	-0.9375 	0.5 	39.4507 	-0.0196573 	3.54376e-20
-0.203125 	-0.9375 	0.5 	39.4545 	-0.025275 	1.3552e-19
-0.1875 	-0.9375 	0.5 	39.4583 	-0.0308928 	2.35602e-19
-0.171875 	-0.9375 	0.5 	39.4623 	-0.0364125 	4.07479e-19
-0.15625 	-0.9375 	0.5 	39.4674 	-0.041604 	8.05818e-20