-0.5 	-1 	0.5 	39.5315 	0.138031 	-3.35707e-20
-0.484375 	-1 	0.5 	39.5296 	0.131532 	-4.85443e-20
-0.46875 	-1 	0.5 	39.5283 	0.12638 	-3.74103e-20
-0.453125 	-1 	0.5 	39.5272 	0.122004 	1.8401e-20
-0.4375 	-1 	0.5 	39.5267 	0.117074 	-1.59086e-20
-0.421875 	-1 	0.5 	39.5264 	0.111503 	-3.66904e-20
-0.40625 	-1 	0.5 	39.5265 	0.106954 	-1.52555e-20
-0.390625 	-1 	0.5 	39.5265 	0.102055 	-9.5672e-21
-0.375 	-1 	0.5 	39.5266 	0.0969387 	-1.80246e-20
-0.359375 	-1 	0.5 	39.5263 	0.0912537 	-7.41425e-21
-0.34375 	-1 	0.5 	39.5266 	0.0866545 	-2.10244e-21
-0.328125 	-1 	0.5 	39.5273 	0.0815401 	-4.92377e-22
-0.3125 	-1 	0.5 	39.5281 	0.0761472 	-3.43611e-21
-0.296875 	-1 	0.5 	39.529 	0.0716033 	-1.86749e-21
-0.28125 	-1 	0.5 	39.5298 	0.0672237 	-2.00476e-21
-0.265625 	-1 	0.5 	39.5311 	0.0627508 	2.77559e-21
-0.25 	-1 	0.5 	39.5324 	0.0578643 	1.72963e-21
-0.234375 	-1 	0.5 	39.5346 	0.0535509 	-1.07324e-19
-0.21875 	-1 	0.5 	39.5358 	0.0494308 	3.92952e-21
-0.203125 	-1 	0.5 	39.5383 	0.044854 	1.59335e-20
-0.1875 	-1 	0.5 	39.5402 	0.0412074 	2.476e-22
-0.171875 	-1 	0.5 	39.5422 	0.0373442 	2.09003e-21
-0.15625 	-1 	0.5 	39.5447 	0.0331896 	-2.23585e-22
-0.140625 	-1 	0.5 	39.5475 	0.0299255 	3.12464e-21
-0.125 	-1 	0.5 	39.5502 	0.0264921 	1.02934e-20
-0.109375 	-1 	0.5 	39.5529 	0.0230959 	1.60661e-20
-0.09375 	-1 	0.5 	39.5555 	0.0204292 	7.09522e-21
-0.078125 	-1 	0.5 	39.5583 	0.0176744 	-1.74527e-22
-0.0625 	-1 	0.5 	39.5615 	0.0151559 	-1.3861e-22
-0.046875 	-1 	0.5 	39.5649 	0.0126398 	1.16695e-20
-0.03125 	-1 	0.5 	39.5677 	0.0104709 	7.13565e-21
-0.015625 	-1 	0.5 	39.5709 	0.00887631 	-1.18241e-20
0 	-1 	0.5 	39.5741 	0.00736903 	-1.02959e-20
0.015625 	-1 	0.5 	39.5771 	0.00604174 	-1.07057e-20
0.03125 	-1 	0.5 	39.5801 	0.00462537 	-2.34764e-20
0.046875 	-1 	0.5 	39.5831 	0.00338451 	-2.67502e-20
0.0625 	-1 	0.5 	39.5861 	0.00297793 	-1.88361e-20
0.078125 	-1 	0.5 	39.589 	0.00255898 	-6.66596e-21
0.09375 	-1 	0.5 	39.5918 	0.00232481 	8.0423e-21
0.109375 	-1 	0.5 	39.5946 	0.00236543 	4.51148e-20
0.125 	-1 	0.5 	39.5973 	0.00231338 	4.63861e-20
0.140625 	-1 	0.5 	39.5994 	0.00255206 	8.59815e-21
0.15625 	-1 	0.5 	39.6017 	0.00302867 	-5.64692e-20
0.171875 	-1 	0.5 	39.6039 	0.00368297 	-2.47415e-21
0.1875 	-1 	0.5 	39.6058 	0.00458061 	-2.37781e-21
0.203125 	-1 	0.5 	39.6076 	0.00577973 	-4.36678e-21
0.21875 	-1 	0.5 	39.609 	0.00690091 	2.9991e-20
0.234375 	-1 	0.5 	39.6104 	0.00802734 	4.12979e-20
0.25 	-1 	0.5 	39.6115 	0.00905576 	4.50568e-21
0.265625 	-1 	0.5 	39.6124 	0.0104302 	3.27798e-20
0.28125 	-1 	0.5 	39.6132 	0.0120487 	2.05183e-20
0.296875 	-1 	0.5 	39.6135 	0.0132652 	6.57077e-21
0.3125 	-1 	0.5 	39.6138 	0.0152324 	2.71928e-20
0.328125 	-1 	0.5 	39.6137 	0.0166175 	-4.39923e-21
0.34375 	-1 	0.5 	39.6135 	0.0182006 	-4.57045e-20
0.359375 	-1 	0.5 	39.6128 	0.0197913 	1.76676e-20
0.375 	-1 	0.5 	39.6121 	0.0211701 	-7.66982e-22
0.390625 	-1 	0.5 	39.611 	0.022583 	-4.24049e-21
0.40625 	-1 	0.5 	39.6097 	0.0240464 	-5.09292e-20
0.421875 	-1 	0.5 	39.6082 	0.0257057 	-2.16868e-20
0.4375 	-1 	0.5 	39.6064 	0.0269374 	1.34259e-20
0.453125 	-1 	0.5 	39.6044 	0.0280085 	1.80481e-20
0.46875 	-1 	0.5 	39.6023 	0.0284268 	9.74044e-21
0.484375 	-1 	0.5 	39.6 	0.0292457 	-1.16101e-21
0.5 	-1 	0.5 	39.5977 	0.0298385 	8.29774e-23
0.515625 	-1 	0.5 	39.5953 	0.0302799 	-4.21353e-21
0.53125 	-1 	0.5 	39.5921 	0.0308767 	-2.09411e-20
0.546875 	-1 	0.5 	39.5892 	0.0301908 	-2.69097e-21
0.5625 	-1 	0.5 	39.5861 	0.0298719 	2.18246e-21
0.578125 	-1 	0.5 	39.5828 	0.0298873 	1.14456e-20
0.59375 	-1 	0.5 	39.5795 	0.0293228 	2.59705e-20
0.609375 	-1 	0.5 	39.576 	0.0276482 	7.00787e-20
0.625 	-1 	0.5 	39.5727 	0.0265524 	-4.76608e-20
0.640625 	-1 	0.5 	39.5697 	0.0257999 	-4.12548e-22
0.65625 	-1 	0.5 	39.5659 	0.0246564 	1.57967e-20
0.671875 	-1 	0.5 	39.5627 	0.0227747 	-6.44999e-21
0.6875 	-1 	0.5 	39.5587 	0.0201872 	-2.25906e-20
0.703125 	-1 	0.5 	39.5547 	0.0183825 	-1.06808e-20
0.71875 	-1 	0.5 	39.5509 	0.0160565 	-5.77001e-21
0.734375 	-1 	0.5 	39.5471 	0.0135068 	2.99595e-21
0.75 	-1 	0.5 	39.5432 	0.0105769 	8.1521e-21
0.765625 	-1 	0.5 	39.5401 	0.00684763 	5.02282e-21
0.78125 	-1 	0.5 	39.5373 	0.00311941 	-6.97523e-21
0.796875 	-1 	0.5 	39.5356 	-0.00100938 	-2.89119e-20
0.8125 	-1 	0.5 	39.5334 	-0.00496944 	3.17928e-20
0.828125 	-1 	0.5 	39.5289 	-0.00921507 	-2.66337e-20
0.84375 	-1 	0.5 	39.5255 	-0.0134818 	1.34445e-21
0.859375 	-1 	0.5 	39.5234 	-0.0183055 	1.30614e-20
0.875 	-1 	0.5 	39.5214 	-0.0225698 	4.59331e-21
0.890625 	-1 	0.5 	39.5185 	-0.0270825 	4.55388e-21
0.90625 	-1 	0.5 	39.5162 	-0.0321613 	4.02615e-21
0.921875 	-1 	0.5 	39.5137 	-0.0365468 	4.07098e-20
0.9375 	-1 	0.5 	39.5119 	-0.0424505 	-1.31392e-20
0.953125 	-1 	0.5 	39.5105 	-0.0482392 	-3.08388e-20
0.96875 	-1 	0.5 	39.5092 	-0.0534631 	8.69454e-22
0.984375 	-1 	0.5 	39.508 	-0.059366 	2.47586e-20
1 	-1 	0.5 	39.5069 	-0.0652724 	1.0661e-20
1.01562 	-1 	0.5 	39.5056 	-0.0711548 	-5.53674e-21
1.03125 	-1 	0.5 	39.5049 	-0.0773241 	-2.8208e-21
1.04688 	-1 	0.5 	39.5044 	-0.0831292 	-6.53151e-21
1.0625 	-1 	0.5 	39.504 	-0.0889343 	-1.02422e-20
1.07812 	-1 	0.5 	39.5038 	-0.0943611 	-8.4216e-21
1.09375 	-1 	0.5 	39.5043 	-0.100375 	1.02863e-20
1.10938 	-1 	0.5 	39.505 	-0.106262 	-1.52047e-21
1.125 	-1 	0.5 	39.5056 	-0.112036 	-9.16147e-21
1.14062 	-1 	0.5 	39.5062 	-0.118149 	-2.5147e-21
1.15625 	-1 	0.5 	39.507 	-0.124155 	-1.30352e-20
1.17188 	-1 	0.5 	39.508 	-0.130101 	-1.61307e-20
1.1875 	-1 	0.5 	39.5093 	-0.136255 	-4.79535e-22
1.20312 	-1 	0.5 	39.5114 	-0.142427 	5.45112e-20
1.21875 	-1 	0.5 	39.5128 	-0.148038 	2.39434e-20
1.23438 	-1 	0.5 	39.516 	-0.155341 	-5.98738e-20
1.25 	-1 	0.5 	39.5179 	-0.160497 	-3.40727e-20
1.26562 	-1 	0.5 	39.5196 	-0.16598 	2.16326e-20
1.28125 	-1 	0.5 	39.5205 	-0.171305 	-2.1004e-20
1.29688 	-1 	0.5 	39.5244 	-0.175749 	-2.73579e-20
1.3125 	-1 	0.5 	39.5274 	-0.18071 	-1.05921e-20
1.32812 	-1 	0.5 	39.5305 	-0.186121 	-1.48885e-20
1.34375 	-1 	0.5 	39.5341 	-0.191019 	2.75461e-20
1.35938 	-1 	0.5 	39.5366 	-0.198546 	1.61385e-20
1.375 	-1 	0.5 	39.5406 	-0.203236 	1.80341e-20
1.39062 	-1 	0.5 	39.5446 	-0.207436 	4.70593e-20
1.40625 	-1 	0.5 	39.5482 	-0.211885 	2.21126e-20
1.42188 	-1 	0.5 	39.5513 	-0.215939 	-3.38097e-20
1.4375 	-1 	0.5 	39.5547 	-0.220129 	1.28561e-19
1.45312 	-1 	0.5 	39.5583 	-0.223888 	2.26266e-19
1.46875 	-1 	0.5 	39.5629 	-0.227737 	1.00388e-19
1.48438 	-1 	0.5 	39.5673 	-0.231564 	-1.25249e-20
-0.5 	-0.984375 	0.5 	39.5249 	0.138819 	-2.13197e-20
-0.484375 	-0.984375 	0.5 	39.5237 	0.133467 	-1.29652e-20
-0.46875 	-0.984375 	0.5 	39.5224 	0.128063 	-1.70539e-20
-0.453125 	-0.984375 	0.5 	39.521 	0.122591 	-1.79728e-20
-0.4375 	-0.984375 	0.5 	39.5207 	0.117435 	-2.26695e-20
-0.421875 	-0.984375 	0.5 	39.5205 	0.112185 	-3.02987e-20
-0.40625 	-0.984375 	0.5 	39.5204 	0.107085 	-3.17908e-20
-0.390625 	-0.984375 	0.5 	39.5205 	0.102323 	-2.17624e-20
-0.375 	-0.984375 	0.5 	39.5201 	0.0963637 	-3.585e-21
-0.359375 	-0.984375 	0.5 	39.5199 	0.0907428 	5.10329e-21
-0.34375 	-0.984375 	0.5 	39.52 	0.0860212 	-1.87059e-21
-0.328125 	-0.984375 	0.5 	39.5207 	0.0808035 	-1.59582e-21
-0.3125 	-0.984375 	0.5 	39.5215 	0.0752888 	-6.02056e-21
-0.296875 	-0.984375 	0.5 	39.5227 	0.0706555 	-4.79922e-21
-0.28125 	-0.984375 	0.5 	39.5235 	0.066273 	-5.16735e-21
-0.265625 	-0.984375 	0.5 	39.5255 	0.0612743 	1.39092e-20
-0.25 	-0.984375 	0.5 	39.5267 	0.0564066 	1.11546e-20
-0.234375 	-0.984375 	0.5 	39.5279 	0.0519169 	-2.02257e-20
-0.21875 	-0.984375 	0.5 	39.5306 	0.0473059 	7.40492e-20
-0.203125 	-0.984375 	0.5 	39.5329 	0.0427852 	5.35987e-20
-0.1875 	-0.984375 	0.5 	39.5348 	0.0388634 	6.76106e-21
-0.171875 	-0.984375 	0.5 	39.5371 	0.0348747 	2.92567e-21
-0.15625 	-0.984375 	0.5 	39.5397 	0.0304927 	5.93985e-22
-0.140625 	-0.984375 	0.5 	39.5426 	0.0271349 	1.37666e-21
-0.125 	-0.984375 	0.5 	39.5453 	0.0235566 	1.16986e-20
-0.109375 	-0.984375 	0.5 	39.5486 	0.0199549 	1.08925e-20
-0.09375 	-0.984375 	0.5 	39.5519 	0.0172611 	1.95688e-21
-0.078125 	-0.984375 	0.5 	39.5548 	0.0143387 	-1.93714e-21
-0.0625 	-0.984375 	0.5 	39.558 	0.0119516 	3.33557e-21
-0.046875 	-0.984375 	0.5 	39.5613 	0.00966517 	-8.88855e-21
-0.03125 	-0.984375 	0.5 	39.5649 	0.00724335 	2.69807e-20
-0.015625 	-0.984375 	0.5 	39.5683 	0.00562748 	1.86659e-19
0 	-0.984375 	0.5 	39.5714 	0.0038858 	-3.74389e-20
0.015625 	-0.984375 	0.5 	39.575 	0.00261441 	-1.47602e-20
0.03125 	-0.984375 	0.5 	39.578 	0.00121008 	-2.70061e-20
0.046875 	-0.984375 	0.5 	39.5814 	0.000383054 	-1.92048e-20
0.0625 	-0.984375 	0.5 	39.5845 	-0.000317495 	-1.50702e-20
0.078125 	-0.984375 	0.5 	39.5875 	-0.000693285 	-3.08682e-20
0.09375 	-0.984375 	0.5 	39.5909 	-0.000702936 	3.81347e-21
0.109375 	-0.984375 	0.5 	39.5936 	-0.000707565 	6.60509e-20
0.125 	-0.984375 	0.5 	39.5963 	-0.000408518 	3.35081e-20
0.140625 	-0.984375 	0.5 	39.599 	0.000253815 	-2.60752e-20
0.15625 	-0.984375 	0.5 	39.6013 	0.000862259 	-1.45001e-20
0.171875 	-0.984375 	0.5 	39.6036 	0.00142667 	-2.10551e-20
0.1875 	-0.984375 	0.5 	39.6058 	0.00262974 	-4.34735e-21
0.203125 	-0.984375 	0.5 	39.6079 	0.00396775 	-1.35691e-20
0.21875 	-0.984375 	0.5 	39.6092 	0.0053214 	-2.13116e-20
0.234375 	-0.984375 	0.5 	39.6108 	0.00663743 	1.41517e-20
0.25 	-0.984375 	0.5 	39.612 	0.00833495 	2.02437e-20
0.265625 	-0.984375 	0.5 	39.6128 	0.009978 	4.35237e-20
0.28125 	-0.984375 	0.5 	39.6135 	0.0117017 	1.32584e-20
0.296875 	-0.984375 	0.5 	39.614 	0.0134507 	3.18483e-20
0.3125 	-0.984375 	0.5 	39.6142 	0.0154376 	6.0699e-20
0.328125 	-0.984375 	0.5 	39.6144 	0.0167337 	8.16027e-21
0.34375 	-0.984375 	0.5 	39.6143 	0.018571 	-9.11012e-20
0.359375 	-0.984375 	0.5 	39.6135 	0.0201568 	-5.16229e-20
0.375 	-0.984375 	0.5 	39.6127 	0.0220956 	3.79399e-21
0.390625 	-0.984375 	0.5 	39.6112 	0.0239154 	-2.79661e-21
0.40625 	-0.984375 	0.5 	39.6099 	0.0257263 	-8.95882e-22
0.421875 	-0.984375 	0.5 	39.6083 	0.0274758 	3.4959e-20
0.4375 	-0.984375 	0.5 	39.6065 	0.0285878 	4.89806e-22
0.453125 	-0.984375 	0.5 	39.6045 	0.0299534 	1.86328e-20
0.46875 	-0.984375 	0.5 	39.6021 	0.0310686 	1.39719e-20
0.484375 	-0.984375 	0.5 	39.5997 	0.0319396 	-6.35711e-22
0.5 	-0.984375 	0.5 	39.5973 	0.0326151 	-8.14277e-22
0.515625 	-0.984375 	0.5 	39.5954 	0.0329981 	3.32322e-20
0.53125 	-0.984375 	0.5 	39.5916 	0.0329084 	-4.04235e-21
0.546875 	-0.984375 	0.5 	39.5881 	0.0335274 	1.49138e-22
0.5625 	-0.984375 	0.5 	39.5847 	0.0336577 	-2.58471e-20
0.578125 	-0.984375 	0.5 	39.5814 	0.0336884 	1.52377e-21
0.59375 	-0.984375 	0.5 	39.5775 	0.0326753 	5.43727e-21
0.609375 	-0.984375 	0.5 	39.5739 	0.0310278 	3.87694e-20
0.625 	-0.984375 	0.5 	39.5708 	0.029829 	-8.59665e-20
0.640625 	-0.984375 	0.5 	39.5675 	0.029394 	-2.85248e-20
0.65625 	-0.984375 	0.5 	39.5635 	0.0279415 	-1.92638e-20
0.671875 	-0.984375 	0.5 	39.5594 	0.0262426 	-2.37977e-21
0.6875 	-0.984375 	0.5 	39.5552 	0.0240024 	-1.06679e-21
0.703125 	-0.984375 	0.5 	39.5514 	0.0223779 	-2.04155e-20
0.71875 	-0.984375 	0.5 	39.5475 	0.0195933 	-1.4257e-20
0.734375 	-0.984375 	0.5 	39.5437 	0.0171198 	-3.62757e-21
0.75 	-0.984375 	0.5 	39.5401 	0.0138537 	3.67269e-21
0.765625 	-0.984375 	0.5 	39.5369 	0.0110474 	6.16873e-20
0.78125 	-0.984375 	0.5 	39.5332 	0.00664053 	-1.52804e-20
0.796875 	-0.984375 	0.5 	39.5296 	0.00295401 	-2.40526e-21
0.8125 	-0.984375 	0.5 	39.5281 	-0.00255729 	2.22436e-20
0.828125 	-0.984375 	0.5 	39.5233 	-0.00791912 	7.152e-20
0.84375 	-0.984375 	0.5 	39.5207 	-0.0108364 	-6.99379e-21
0.859375 	-0.984375 	0.5 	39.5176 	-0.0156362 	8.53576e-22
0.875 	-0.984375 	0.5 	39.5144 	-0.0201605 	1.58626e-22
0.890625 	-0.984375 	0.5 	39.5127 	-0.024664 	3.96865e-21
0.90625 	-0.984375 	0.5 	39.5098 	-0.0302896 	-3.99031e-22
0.921875 	-0.984375 	0.5 	39.5077 	-0.0355318 	-3.62703e-21
0.9375 	-0.984375 	0.5 	39.5058 	-0.0410212 	-2.16949e-20
0.953125 	-0.984375 	0.5 	39.5044 	-0.0464892 	-6.45193e-21
0.96875 	-0.984375 	0.5 	39.5025 	-0.0520143 	-4.1864e-21
0.984375 	-0.984375 	0.5 	39.5011 	-0.0579304 	-2.5245e-20
1 	-0.984375 	0.5 	39.4995 	-0.0635137 	-7.59024e-20
1.01562 	-0.984375 	0.5 	39.4985 	-0.0701396 	7.15463e-21
1.03125 	-0.984375 	0.5 	39.4981 	-0.0764226 	8.26845e-21
1.04688 	-0.984375 	0.5 	39.4975 	-0.0828194 	-1.03754e-20
1.0625 	-0.984375 	0.5 	39.4974 	-0.0881901 	-5.1107e-21
1.07812 	-0.984375 	0.5 	39.4965 	-0.0943693 	-2.64254e-20
1.09375 	-0.984375 	0.5 	39.4965 	-0.101944 	8.02746e-21
1.10938 	-0.984375 	0.5 	39.4979 	-0.106501 	3.10226e-20
1.125 	-0.984375 	0.5 	39.4987 	-0.112455 	1.68493e-20
1.14062 	-0.984375 	0.5 	39.4995 	-0.118379 	4.58225e-21
1.15625 	-0.984375 	0.5 	39.4998 	-0.124751 	-1.21282e-20
1.17188 	-0.984375 	0.5 	39.5005 	-0.131366 	-1.77782e-20
1.1875 	-0.984375 	0.5 	39.5017 	-0.13716 	-8.62352e-21
1.20312 	-0.984375 	0.5 	39.5035 	-0.143358 	-1.37786e-20
1.21875 	-0.984375 	0.5 	39.5054 	-0.149502 	4.55521e-21
1.23438 	-0.984375 	0.5 	39.5085 	-0.156615 	-4.32702e-20
1.25 	-0.984375 	0.5 	39.5113 	-0.162977 	-4.5968e-20
1.26562 	-0.984375 	0.5 	39.5134 	-0.168324 	-2.46765e-20
1.28125 	-0.984375 	0.5 	39.5156 	-0.173352 	-1.89883e-20
1.29688 	-0.984375 	0.5 	39.5186 	-0.178488 	-9.78234e-21
1.3125 	-0.984375 	0.5 	39.5216 	-0.183706 	-4.14719e-21
1.32812 	-0.984375 	0.5 	39.5247 	-0.189016 	-3.32388e-21
1.34375 	-0.984375 	0.5 	39.5277 	-0.195026 	3.22482e-20
1.35938 	-0.984375 	0.5 	39.5308 	-0.201236 	4.3081e-20
1.375 	-0.984375 	0.5 	39.5344 	-0.20648 	2.22035e-21
1.39062 	-0.984375 	0.5 	39.5386 	-0.211075 	8.97645e-21
1.40625 	-0.984375 	0.5 	39.5428 	-0.215692 	1.82546e-20
1.42188 	-0.984375 	0.5 	39.5466 	-0.21998 	9.83365e-21
1.4375 	-0.984375 	0.5 	39.5505 	-0.223882 	3.22042e-20
1.45312 	-0.984375 	0.5 	39.5545 	-0.228283 	-3.2932e-20
1.46875 	-0.984375 	0.5 	39.5583 	-0.232836 	-9.29233e-20
1.48438 	-0.984375 	0.5 	39.5629 	-0.236205 	-5.90552e-21
-0.5 	-0.96875 	0.5 	39.518 	0.139967 	-2.69627e-20
-0.484375 	-0.96875 	0.5 	39.517 	0.134782 	3.18278e-20
-0.46875 	-0.96875 	0.5 	39.5156 	0.129293 	7.22352e-21
-0.453125 	-0.96875 	0.5 	39.5144 	0.123498 	-8.61103e-21
-0.4375 	-0.96875 	0.5 	39.5136 	0.118166 	-6.20682e-20
-0.421875 	-0.96875 	0.5 	39.5138 	0.112982 	-7.9457e-20
-0.40625 	-0.96875 	0.5 	39.514 	0.107786 	-5.92764e-20
-0.390625 	-0.96875 	0.5 	39.5141 	0.102416 	-4.66956e-20
-0.375 	-0.96875 	0.5 	39.514 	0.0967869 	-2.8914e-20
-0.359375 	-0.96875 	0.5 	39.5138 	0.0911583 	-1.11325e-20
-0.34375 	-0.96875 	0.5 	39.5135 	0.0854961 	-2.8569e-22
-0.328125 	-0.96875 	0.5 	39.5143 	0.0803412 	-1.64272e-21
-0.3125 	-0.96875 	0.5 	39.5153 	0.0752385 	-3.35032e-21
-0.296875 	-0.96875 	0.5 	39.5162 	0.0701024 	-2.89805e-21
-0.28125 	-0.96875 	0.5 	39.5174 	0.0649672 	-7.88417e-21
-0.265625 	-0.96875 	0.5 	39.5187 	0.0599538 	-9.30336e-21
-0.25 	-0.96875 	0.5 	39.5201 	0.0549403 	-1.07225e-20
-0.234375 	-0.96875 	0.5 	39.5219 	0.049724 	-3.61939e-21
-0.21875 	-0.96875 	0.5 	39.5249 	0.0452805 	2.92932e-20
-0.203125 	-0.96875 	0.5 	39.5272 	0.0407774 	2.34302e-20
-0.1875 	-0.96875 	0.5 	39.5296 	0.0363145 	8.49245e-21
-0.171875 	-0.96875 	0.5 	39.5322 	0.0320811 	6.21235e-21
-0.15625 	-0.96875 	0.5 	39.5348 	0.027841 	1.36631e-21
-0.140625 	-0.96875 	0.5 	39.5375 	0.0240708 	5.72136e-21
-0.125 	-0.96875 	0.5 	39.5411 	0.0206437 	1.17808e-20
-0.109375 	-0.96875 	0.5 	39.5443 	0.016785 	7.19078e-21
-0.09375 	-0.96875 	0.5 	39.5475 	0.0142987 	-6.8731e-21
-0.078125 	-0.96875 	0.5 	39.5511 	0.0108867 	-2.19834e-21
-0.0625 	-0.96875 	0.5 	39.5547 	0.0081128 	-1.44727e-20
-0.046875 	-0.96875 	0.5 	39.5579 	0.00548824 	-1.30716e-20
-0.03125 	-0.96875 	0.5 	39.5618 	0.004099 	-2.89714e-21
-0.015625 	-0.96875 	0.5 	39.5653 	0.00186797 	6.38481e-20
0 	-0.96875 	0.5 	39.5688 	0.000395001 	-5.87823e-20
0.015625 	-0.96875 	0.5 	39.5725 	-0.000875365 	-6.56069e-20
0.03125 	-0.96875 	0.5 	39.576 	-0.00192595 	-1.70803e-20
0.046875 	-0.96875 	0.5 	39.5795 	-0.00291073 	-9.62034e-21
0.0625 	-0.96875 	0.5 	39.5829 	-0.00379617 	-2.56984e-21
0.078125 	-0.96875 	0.5 	39.5863 	-0.00371332 	-2.53858e-20
0.09375 	-0.96875 	0.5 	39.5897 	-0.00363135 	-4.7646e-20
0.109375 	-0.96875 	0.5 	39.5926 	-0.00359714 	1.85422e-20
0.125 	-0.96875 	0.5 	39.5956 	-0.00308734 	7.55091e-20
0.140625 	-0.96875 	0.5 	39.5985 	-0.00264352 	-7.81435e-21
0.15625 	-0.96875 	0.5 	39.6008 	-0.00193205 	-2.20823e-20
0.171875 	-0.96875 	0.5 	39.6038 	-0.000872118 	-2.34777e-20
0.1875 	-0.96875 	0.5 	39.606 	0.000608257 	-1.26902e-20
0.203125 	-0.96875 	0.5 	39.6083 	0.00206783 	-1.00438e-20
0.21875 	-0.96875 	0.5 	39.61 	0.00378354 	7.50319e-21
0.234375 	-0.96875 	0.5 	39.6116 	0.00540066 	1.25971e-20
0.25 	-0.96875 	0.5 	39.6127 	0.00705785 	2.04402e-20
0.265625 	-0.96875 	0.5 	39.6136 	0.00896292 	4.36054e-20
0.28125 	-0.96875 	0.5 	39.6143 	0.0108234 	-1.95076e-20
0.296875 	-0.96875 	0.5 	39.615 	0.0133316 	-4.18898e-20
0.3125 	-0.96875 	0.5 	39.615 	0.0154321 	-1.42384e-20
0.328125 	-0.96875 	0.5 	39.6152 	0.0172851 	6.44213e-21
0.34375 	-0.96875 	0.5 	39.6147 	0.0189016 	4.68384e-21
0.359375 	-0.96875 	0.5 	39.614 	0.0212596 	6.26469e-20
0.375 	-0.96875 	0.5 	39.6134 	0.0232114 	2.1743e-20
0.390625 	-0.96875 	0.5 	39.612 	0.0249923 	4.09039e-21
0.40625 	-0.96875 	0.5 	39.6104 	0.0276779 	-3.74022e-21
0.421875 	-0.96875 	0.5 	39.6089 	0.0291496 	3.28908e-20
0.4375 	-0.96875 	0.5 	39.6072 	0.0303634 	2.4871e-21
0.453125 	-0.96875 	0.5 	39.6048 	0.0321649 	9.66839e-21
0.46875 	-0.96875 	0.5 	39.6022 	0.0332684 	4.64011e-20
0.484375 	-0.96875 	0.5 	39.5996 	0.0341516 	2.51741e-20
0.5 	-0.96875 	0.5 	39.5971 	0.0350777 	-2.49019e-21
0.515625 	-0.96875 	0.5 	39.5942 	0.0353928 	-3.63055e-20
0.53125 	-0.96875 	0.5 	39.5908 	0.0359264 	-2.65062e-20
0.546875 	-0.96875 	0.5 	39.5872 	0.0364895 	4.57712e-20
0.5625 	-0.96875 	0.5 	39.5833 	0.0374619 	-4.61421e-21
0.578125 	-0.96875 	0.5 	39.5799 	0.0374228 	-6.13251e-21
0.59375 	-0.96875 	0.5 	39.5758 	0.0360177 	-7.94326e-21
0.609375 	-0.96875 	0.5 	39.5718 	0.0349219 	1.09707e-21
0.625 	-0.96875 	0.5 	39.5684 	0.0349225 	-9.05349e-21
0.640625 	-0.96875 	0.5 	39.5646 	0.0331542 	-4.77744e-20
0.65625 	-0.96875 	0.5 	39.5608 	0.0319927 	1.30707e-20
0.671875 	-0.96875 	0.5 	39.5564 	0.0305325 	2.34597e-20
0.6875 	-0.96875 	0.5 	39.552 	0.0284039 	3.24828e-23
0.703125 	-0.96875 	0.5 	39.5481 	0.0261191 	-3.47194e-20
0.71875 	-0.96875 	0.5 	39.5441 	0.0233118 	-3.46709e-20
0.734375 	-0.96875 	0.5 	39.5403 	0.0205562 	-1.24248e-20
0.75 	-0.96875 	0.5 	39.5365 	0.0173525 	-1.74359e-21
0.765625 	-0.96875 	0.5 	39.5324 	0.0143503 	1.11782e-20
0.78125 	-0.96875 	0.5 	39.5291 	0.0101764 	-1.48684e-20
0.796875 	-0.96875 	0.5 	39.5256 	0.00516744 	-1.55924e-20
0.8125 	-0.96875 	0.5 	39.5225 	0.000615831 	-8.29314e-21
0.828125 	-0.96875 	0.5 	39.518 	-0.00315307 	-6.36183e-20
0.84375 	-0.96875 	0.5 	39.515 	-0.00741327 	6.05862e-22
0.859375 	-0.96875 	0.5 	39.5117 	-0.0123973 	5.27786e-22
0.875 	-0.96875 	0.5 	39.509 	-0.0176607 	8.54594e-22
0.890625 	-0.96875 	0.5 	39.5065 	-0.0226785 	-1.18651e-22
0.90625 	-0.96875 	0.5 	39.5039 	-0.0278744 	-1.84287e-20
0.921875 	-0.96875 	0.5 	39.5011 	-0.033096 	-2.12218e-20
0.9375 	-0.96875 	0.5 	39.4981 	-0.0388105 	6.16897e-21
0.953125 	-0.96875 	0.5 	39.4963 	-0.0447212 	2.78766e-21
0.96875 	-0.96875 	0.5 	39.4946 	-0.0499224 	4.14789e-21
0.984375 	-0.96875 	0.5 	39.4943 	-0.0568519 	2.21497e-21
1 	-0.96875 	0.5 	39.4924 	-0.062835 	-2.85409e-20
1.01562 	-0.96875 	0.5 	39.4914 	-0.0690513 	2.11761e-20
1.03125 	-0.96875 	0.5 	39.491 	-0.0753055 	2.54876e-20
1.04688 	-0.96875 	0.5 	39.4911 	-0.0818238 	-4.72386e-23
1.0625 	-0.96875 	0.5 	39.4905 	-0.0877589 	-1.05215e-20
1.07812 	-0.96875 	0.5 	39.4896 	-0.0950771 	-1.38036e-20
1.09375 	-0.96875 	0.5 	39.489 	-0.102717 	-2.99548e-21
1.10938 	-0.96875 	0.5 	39.4897 	-0.1088 	9.35078e-21
1.125 	-0.96875 	0.5 	39.4912 	-0.116073 	3.20363e-20
1.14062 	-0.96875 	0.5 	39.4924 	-0.122025 	3.45667e-20
1.15625 	-0.96875 	0.5 	39.4925 	-0.126332 	-7.39089e-21
1.17188 	-0.96875 	0.5 	39.4933 	-0.1331 	-6.07627e-21
1.1875 	-0.96875 	0.5 	39.4944 	-0.138368 	6.39296e-22
1.20312 	-0.96875 	0.5 	39.4964 	-0.144834 	-7.10854e-21
1.21875 	-0.96875 	0.5 	39.4985 	-0.151049 	-7.13775e-21
1.23438 	-0.96875 	0.5 	39.5013 	-0.158607 	-7.14791e-20
1.25 	-0.96875 	0.5 	39.504 	-0.16491 	-7.32518e-20
1.26562 	-0.96875 	0.5 	39.5066 	-0.170105 	-1.46289e-20
1.28125 	-0.96875 	0.5 	39.5094 	-0.176684 	-1.74099e-20
1.29688 	-0.96875 	0.5 	39.5121 	-0.181679 	-2.67849e-20
1.3125 	-0.96875 	0.5 	39.5151 	-0.186896 	-2.03623e-20
1.32812 	-0.96875 	0.5 	39.5183 	-0.192413 	-1.67063e-20
1.34375 	-0.96875 	0.5 	39.5219 	-0.198032 	2.94338e-20
1.35938 	-0.96875 	0.5 	39.525 	-0.203925 	7.00234e-20
1.375 	-0.96875 	0.5 	39.5285 	-0.209686 	9.56466e-21
1.39062 	-0.96875 	0.5 	39.5326 	-0.214266 	1.47171e-20
1.40625 	-0.96875 	0.5 	39.5369 	-0.21899 	2.29262e-20
1.42188 	-0.96875 	0.5 	39.5412 	-0.224187 	2.40544e-20
1.4375 	-0.96875 	0.5 	39.546 	-0.228695 	2.39683e-20
1.45312 	-0.96875 	0.5 	39.5496 	-0.233848 	-1.11705e-19
1.46875 	-0.96875 	0.5 	39.5532 	-0.238773 	-2.17912e-19
1.48438 	-0.96875 	0.5 	39.5583 	-0.24138 	-3.55952e-20
-0.5 	-0.953125 	0.5 	39.5114 	0.141299 	-1.40712e-20
-0.484375 	-0.953125 	0.5 	39.51 	0.135856 	1.84978e-20
-0.46875 	-0.953125 	0.5 	39.5087 	0.13015 	-7.26927e-21
-0.453125 	-0.953125 	0.5 	39.5076 	0.124216 	-1.44374e-21
-0.4375 	-0.953125 	0.5 	39.5065 	0.118782 	-4.62096e-21
-0.421875 	-0.953125 	0.5 	39.5064 	0.113615 	-7.86193e-20
-0.40625 	-0.953125 	0.5 	39.5067 	0.108179 	1.27332e-20
-0.390625 	-0.953125 	0.5 	39.5066 	0.10203 	2.48896e-20
-0.375 	-0.953125 	0.5 	39.506 	0.0966577 	-1.38482e-19
-0.359375 	-0.953125 	0.5 	39.506 	0.0909426 	-8.1174e-20
-0.34375 	-0.953125 	0.5 	39.5063 	0.0847219 	3.78148e-20
-0.328125 	-0.953125 	0.5 	39.5071 	0.0792975 	3.2383e-20
-0.3125 	-0.953125 	0.5 	39.5079 	0.0741263 	7.19642e-20
-0.296875 	-0.953125 	0.5 	39.5092 	0.0690474 	8.61693e-21
-0.28125 	-0.953125 	0.5 	39.5114 	0.0632565 	-1.80011e-20
-0.265625 	-0.953125 	0.5 	39.5126 	0.0580579 	-1.89912e-20
-0.25 	-0.953125 	0.5 	39.5144 	0.0532046 	-5.3885e-21
-0.234375 	-0.953125 	0.5 	39.5162 	0.0477753 	-1.82532e-20
-0.21875 	-0.953125 	0.5 	39.5191 	0.0427696 	2.86153e-20
-0.203125 	-0.953125 	0.5 	39.5213 	0.0378961 	3.42834e-21
-0.1875 	-0.953125 	0.5 	39.5238 	0.0333221 	-1.70992e-20
-0.171875 	-0.953125 	0.5 	39.5266 	0.0292974 	-6.77329e-20
-0.15625 	-0.953125 	0.5 	39.5294 	0.0248373 	4.71619e-22
-0.140625 	-0.953125 	0.5 	39.5328 	0.0209263 	1.41551e-21
-0.125 	-0.953125 	0.5 	39.5365 	0.0173058 	1.37678e-21
-0.109375 	-0.953125 	0.5 	39.5399 	0.0136871 	2.70883e-21
-0.09375 	-0.953125 	0.5 	39.5433 	0.0105276 	-3.30482e-22
-0.078125 	-0.953125 	0.5 	39.547 	0.0072767 	-6.77883e-22
-0.0625 	-0.953125 	0.5 	39.5506 	0.00468283 	6.28158e-21
-0.046875 	-0.953125 	0.5 	39.5546 	0.00168168 	-2.22481e-20
-0.03125 	-0.953125 	0.5 	39.5584 	-1.67173e-05 	-4.62941e-20
-0.015625 	-0.953125 	0.5 	39.5624 	-0.00185347 	1.99734e-20
0 	-0.953125 	0.5 	39.5663 	-0.00344662 	1.2188e-19
0.015625 	-0.953125 	0.5 	39.5699 	-0.00477478 	1.21565e-21
0.03125 	-0.953125 	0.5 	39.5743 	-0.00571354 	-1.52511e-20
0.046875 	-0.953125 	0.5 	39.5778 	-0.00670421 	-3.55032e-21
0.0625 	-0.953125 	0.5 	39.5816 	-0.00712827 	-2.98933e-20
0.078125 	-0.953125 	0.5 	39.585 	-0.00710244 	1.67539e-19
0.09375 	-0.953125 	0.5 	39.5885 	-0.00715386 	1.6796e-20
0.109375 	-0.953125 	0.5 	39.5921 	-0.00667808 	-2.10659e-20
0.125 	-0.953125 	0.5 	39.5951 	-0.00615574 	-3.52719e-20
0.140625 	-0.953125 	0.5 	39.5979 	-0.0055724 	-4.46579e-21
0.15625 	-0.953125 	0.5 	39.6011 	-0.00439474 	-2.71218e-22
0.171875 	-0.953125 	0.5 	39.6041 	-0.0032483 	-1.19893e-20
0.1875 	-0.953125 	0.5 	39.6064 	-0.00182867 	-7.15329e-21
0.203125 	-0.953125 	0.5 	39.6086 	2.56015e-05 	-5.27962e-21
0.21875 	-0.953125 	0.5 	39.6104 	0.00102467 	-3.73727e-20
0.234375 	-0.953125 	0.5 	39.6123 	0.00390866 	4.78267e-21
0.25 	-0.953125 	0.5 	39.6135 	0.00588233 	2.03564e-21
0.265625 	-0.953125 	0.5 	39.6146 	0.00787206 	1.28256e-20
0.28125 	-0.953125 	0.5 	39.6153 	0.0101989 	-1.44564e-20
0.296875 	-0.953125 	0.5 	39.6159 	0.0124222 	-4.76621e-20
0.3125 	-0.953125 	0.5 	39.6161 	0.0146326 	-2.36083e-20
0.328125 	-0.953125 	0.5 	39.6164 	0.0171317 	-4.17475e-21
0.34375 	-0.953125 	0.5 	39.6158 	0.0197196 	8.38256e-20
0.359375 	-0.953125 	0.5 	39.6149 	0.0219993 	3.97251e-20
0.375 	-0.953125 	0.5 	39.614 	0.0242543 	2.19491e-20
0.390625 	-0.953125 	0.5 	39.6127 	0.0266575 	1.03362e-20
0.40625 	-0.953125 	0.5 	39.6112 	0.0288745 	1.62485e-21
0.421875 	-0.953125 	0.5 	39.6097 	0.0308508 	-6.85137e-21
0.4375 	-0.953125 	0.5 	39.6076 	0.0324996 	-3.67371e-21
0.453125 	-0.953125 	0.5 	39.6051 	0.0344347 	7.94869e-22
0.46875 	-0.953125 	0.5 	39.6026 	0.03591 	2.57552e-20
0.484375 	-0.953125 	0.5 	39.6 	0.0367927 	4.57454e-21
0.5 	-0.953125 	0.5 	39.5969 	0.0383974 	-8.98145e-21
0.515625 	-0.953125 	0.5 	39.593 	0.0385735 	-1.27926e-20
0.53125 	-0.953125 	0.5 	39.5897 	0.0390576 	-2.59924e-21
0.546875 	-0.953125 	0.5 	39.586 	0.0398578 	1.24226e-20
0.5625 	-0.953125 	0.5 	39.5822 	0.0408503 	-5.47187e-21
0.578125 	-0.953125 	0.5 	39.5784 	0.0411393 	1.09905e-20
0.59375 	-0.953125 	0.5 	39.5753 	0.040776 	4.0436e-20
0.609375 	-0.953125 	0.5 	39.5706 	0.0388353 	1.73077e-21
0.625 	-0.953125 	0.5 	39.5663 	0.0377815 	2.26107e-21
0.640625 	-0.953125 	0.5 	39.5621 	0.0372309 	-9.34829e-21
0.65625 	-0.953125 	0.5 	39.5578 	0.035859 	1.58946e-20
0.671875 	-0.953125 	0.5 	39.5534 	0.0342626 	1.49717e-21
0.6875 	-0.953125 	0.5 	39.5489 	0.0328153 	1.14021e-21
0.703125 	-0.953125 	0.5 	39.5444 	0.029429 	-4.80216e-20
0.71875 	-0.953125 	0.5 	39.5403 	0.0269079 	-4.04226e-20
0.734375 	-0.953125 	0.5 	39.536 	0.024466 	-1.1794e-20
0.75 	-0.953125 	0.5 	39.5313 	0.0213493 	3.55044e-20
0.765625 	-0.953125 	0.5 	39.528 	0.0180948 	-4.79489e-21
0.78125 	-0.953125 	0.5 	39.5238 	0.0143132 	-6.37334e-22
0.796875 	-0.953125 	0.5 	39.5205 	0.00879356 	-8.16653e-21
0.8125 	-0.953125 	0.5 	39.5166 	0.0044416 	-2.00478e-20
0.828125 	-0.953125 	0.5 	39.5127 	0.000308727 	-3.29131e-20
0.84375 	-0.953125 	0.5 	39.5093 	-0.00404856 	1.17616e-22
0.859375 	-0.953125 	0.5 	39.5065 	-0.00942966 	1.23645e-21
0.875 	-0.953125 	0.5 	39.5028 	-0.0143628 	4.89897e-21
0.890625 	-0.953125 	0.5 	39.4997 	-0.0200517 	-3.60702e-21
0.90625 	-0.953125 	0.5 	39.4968 	-0.0249936 	-5.78121e-20
0.921875 	-0.953125 	0.5 	39.494 	-0.0310071 	4.74542e-21
0.9375 	-0.953125 	0.5 	39.491 	-0.0365699 	1.75319e-20
0.953125 	-0.953125 	0.5 	39.4877 	-0.0415156 	2.58648e-21
0.96875 	-0.953125 	0.5 	39.4868 	-0.0480757 	1.5842e-20
0.984375 	-0.953125 	0.5 	39.4864 	-0.0549078 	1.41907e-20
1 	-0.953125 	0.5 	39.4853 	-0.061997 	7.67153e-22
1.01562 	-0.953125 	0.5 	39.4841 	-0.0687036 	-2.64305e-22
1.03125 	-0.953125 	0.5 	39.4837 	-0.0750132 	6.58402e-23
1.04688 	-0.953125 	0.5 	39.4837 	-0.0810291 	3.55694e-22
1.0625 	-0.953125 	0.5 	39.4832 	-0.0875726 	-6.95265e-22
1.07812 	-0.953125 	0.5 	39.4822 	-0.0944711 	1.25256e-21
1.09375 	-0.953125 	0.5 	39.4818 	-0.10249 	2.8734e-21
1.10938 	-0.953125 	0.5 	39.4821 	-0.111486 	5.76981e-21
1.125 	-0.953125 	0.5 	39.4831 	-0.116702 	8.99619e-21
1.14062 	-0.953125 	0.5 	39.4847 	-0.124067 	3.51774e-20
1.15625 	-0.953125 	0.5 	39.4855 	-0.128562 	1.407e-20
1.17188 	-0.953125 	0.5 	39.4861 	-0.134561 	3.63018e-21
1.1875 	-0.953125 	0.5 	39.4878 	-0.140552 	1.04621e-21
1.20312 	-0.953125 	0.5 	39.49 	-0.146286 	1.54593e-20
1.21875 	-0.953125 	0.5 	39.4922 	-0.152968 	1.62067e-21
1.23438 	-0.953125 	0.5 	39.4949 	-0.160375 	-5.2565e-20
1.25 	-0.953125 	0.5 	39.4974 	-0.165854 	-7.96245e-21
1.26562 	-0.953125 	0.5 	39.4998 	-0.17283 	-7.29461e-21
1.28125 	-0.953125 	0.5 	39.5032 	-0.178877 	1.35188e-20
1.29688 	-0.953125 	0.5 	39.5058 	-0.185464 	-1.59074e-20
1.3125 	-0.953125 	0.5 	39.5086 	-0.19053 	-2.01371e-20
1.32812 	-0.953125 	0.5 	39.5115 	-0.196207 	-4.85709e-20
1.34375 	-0.953125 	0.5 	39.5145 	-0.201935 	-7.35189e-20
1.35938 	-0.953125 	0.5 	39.519 	-0.207559 	6.03309e-21
1.375 	-0.953125 	0.5 	39.5227 	-0.212941 	2.23393e-20
1.39062 	-0.953125 	0.5 	39.527 	-0.218077 	1.83413e-20
1.40625 	-0.953125 	0.5 	39.5313 	-0.223268 	1.27535e-20
1.42188 	-0.953125 	0.5 	39.5356 	-0.228475 	2.38849e-20
1.4375 	-0.953125 	0.5 	39.5397 	-0.233015 	9.84141e-20
1.45312 	-0.953125 	0.5 	39.5448 	-0.237503 	5.43812e-20
1.46875 	-0.953125 	0.5 	39.5497 	-0.242167 	-2.63271e-20
1.48438 	-0.953125 	0.5 	39.5536 	-0.24658 	-6.89369e-20
-0.5 	-0.9375 	0.5 	39.5047 	0.142654 	-8.1291e-21
-0.484375 	-0.9375 	0.5 	39.503 	0.136807 	-6.004e-21
-0.46875 	-0.9375 	0.5 	39.5019 	0.131042 	-2.34799e-21
-0.453125 	-0.9375 	0.5 	39.5008 	0.125277 	1.30802e-21
-0.4375 	-0.9375 	0.5 	39.4997 	0.119514 	4.92323e-21
-0.421875 	-0.9375 	0.5 	39.4993 	0.114158 	9.0075e-21
-0.40625 	-0.9375 	0.5 	39.4989 	0.107809 	1.26644e-19
-0.390625 	-0.9375 	0.5 	39.4988 	0.101719 	1.07683e-19
-0.375 	-0.9375 	0.5 	39.4988 	0.0961236 	-6.30952e-20
-0.359375 	-0.9375 	0.5 	39.4989 	0.0902005 	1.82093e-20
-0.34375 	-0.9375 	0.5 	39.4992 	0.0837166 	9.04824e-20
-0.328125 	-0.9375 	0.5 	39.5002 	0.07829 	1.74636e-20
-0.3125 	-0.9375 	0.5 	39.501 	0.0730997 	5.18243e-20
-0.296875 	-0.9375 	0.5 	39.5024 	0.0676196 	-4.72274e-20
-0.28125 	-0.9375 	0.5 	39.5048 	0.0617642 	-6.23133e-20
-0.265625 	-0.9375 	0.5 	39.507 	0.0563168 	-1.29632e-20
-0.25 	-0.9375 	0.5 	39.5087 	0.0513798 	-2.80043e-20
-0.234375 	-0.9375 	0.5 	39.5106 	0.0455469 	-1.48623e-20
-0.21875 	-0.9375 	0.5 	39.5129 	0.0399536 	-6.34207e-21
-0.203125 	-0.9375 	0.5 	39.5157 	0.034791 	-1.9304e-21
-0.1875 	-0.9375 	0.5 	39.518 	0.0302047 	-8.55163e-21
-0.171875 	-0.9375 	0.5 	39.5208 	0.0260112 	-1.31169e-20
-0.15625 	-0.9375 	0.5 	39.5242 	0.0216526 	6.37808e-20
-0.140625 	-0.9375 	0.5 	39.5277 	0.0174198 	1.29405e-21
-0.125 	-0.9375 	0.5 	39.5312 	0.014042 	8.59575e-23
-0.109375 	-0.9375 	0.5 	39.5352 	0.0101046 	1.73089e-20