-0.5 	-1 	0.5 	-86.6819
-0.484375 	-1 	0.5 	-86.2788
-0.46875 	-1 	0.5 	-85.935
-0.453125 	-1 	0.5 	-85.6208
-0.4375 	-1 	0.5 	-85.3032
-0.421875 	-1 	0.5 	-84.9562
-0.40625 	-1 	0.5 	-84.5462
-0.390625 	-1 	0.5 	-84.0711
-0.375 	-1 	0.5 	-83.6505
-0.359375 	-1 	0.5 	-83.2819
-0.34375 	-1 	0.5 	-83
-0.328125 	-1 	0.5 	-82.6492
-0.3125 	-1 	0.5 	-82.4653
-0.296875 	-1 	0.5 	-82.1427
-0.28125 	-1 	0.5 	-81.9056
-0.265625 	-1 	0.5 	-81.4702
-0.25 	-1 	0.5 	-81.0799
-0.234375 	-1 	0.5 	-80.7968
-0.21875 	-1 	0.5 	-80.5227
-0.203125 	-1 	0.5 	-80.2486
-0.1875 	-1 	0.5 	-79.9684
-0.171875 	-1 	0.5 	-79.6492
-0.15625 	-1 	0.5 	-79.3299
-0.140625 	-1 	0.5 	-79.0107
-0.125 	-1 	0.5 	-78.6949
-0.109375 	-1 	0.5 	-78.4166
-0.09375 	-1 	0.5 	-78.1659
-0.078125 	-1 	0.5 	-77.9152
-0.0625 	-1 	0.5 	-77.6268
-0.046875 	-1 	0.5 	-77.3365
-0.03125 	-1 	0.5 	-77.065
-0.015625 	-1 	0.5 	-76.8043
0 	-1 	0.5 	-76.4703
0.015625 	-1 	0.5 	-76.2106
0.03125 	-1 	0.5 	-75.9509
0.046875 	-1 	0.5 	-75.8059
0.0625 	-1 	0.5 	-75.7951
0.078125 	-1 	0.5 	-75.5727
0.09375 	-1 	0.5 	-75.1611
0.109375 	-1 	0.5 	-74.9136
0.125 	-1 	0.5 	-74.7212
0.140625 	-1 	0.5 	-74.5506
0.15625 	-1 	0.5 	-74.4227
0.171875 	-1 	0.5 	-74.1932
0.1875 	-1 	0.5 	-73.9654
0.203125 	-1 	0.5 	-73.7807
0.21875 	-1 	0.5 	-73.5547
0.234375 	-1 	0.5 	-73.4672
0.25 	-1 	0.5 	-73.3146
0.265625 	-1 	0.5 	-73.1375
0.28125 	-1 	0.5 	-72.9541
0.296875 	-1 	0.5 	-72.7848
0.3125 	-1 	0.5 	-72.6659
0.328125 	-1 	0.5 	-72.609
0.34375 	-1 	0.5 	-72.4826
0.359375 	-1 	0.5 	-72.5242
0.375 	-1 	0.5 	-72.3417
0.390625 	-1 	0.5 	-72.2181
0.40625 	-1 	0.5 	-72.0723
0.421875 	-1 	0.5 	-72.0085
0.4375 	-1 	0.5 	-72.1094
0.453125 	-1 	0.5 	-72.0149
0.46875 	-1 	0.5 	-72.0105
0.484375 	-1 	0.5 	-72.0306
0.5 	-1 	0.5 	-71.9703
0.515625 	-1 	0.5 	-71.9558
0.53125 	-1 	0.5 	-71.9659
0.546875 	-1 	0.5 	-72.0029
0.5625 	-1 	0.5 	-72.0403
0.578125 	-1 	0.5 	-72.0895
0.59375 	-1 	0.5 	-72.0888
0.609375 	-1 	0.5 	-72.2015
0.625 	-1 	0.5 	-72.2939
0.640625 	-1 	0.5 	-72.3688
0.65625 	-1 	0.5 	-72.5258
0.671875 	-1 	0.5 	-72.675
0.6875 	-1 	0.5 	-72.8052
0.703125 	-1 	0.5 	-72.9721
0.71875 	-1 	0.5 	-73.1088
0.734375 	-1 	0.5 	-73.2754
0.75 	-1 	0.5 	-73.4379
0.765625 	-1 	0.5 	-73.6468
0.78125 	-1 	0.5 	-73.8598
0.796875 	-1 	0.5 	-74.0729
0.8125 	-1 	0.5 	-74.3475
0.828125 	-1 	0.5 	-74.5877
0.84375 	-1 	0.5 	-74.8523
0.859375 	-1 	0.5 	-75.1204
0.875 	-1 	0.5 	-75.3691
0.890625 	-1 	0.5 	-75.6128
0.90625 	-1 	0.5 	-75.8515
0.921875 	-1 	0.5 	-76.1976
0.9375 	-1 	0.5 	-76.5498
0.953125 	-1 	0.5 	-76.9813
0.96875 	-1 	0.5 	-77.2549
0.984375 	-1 	0.5 	-77.5282
1 	-1 	0.5 	-77.8517
1.01562 	-1 	0.5 	-78.1783
1.03125 	-1 	0.5 	-78.571
1.04688 	-1 	0.5 	-78.9969
1.0625 	-1 	0.5 	-79.4228
1.07812 	-1 	0.5 	-79.7937
1.09375 	-1 	0.5 	-80.1734
1.10938 	-1 	0.5 	-80.5532
1.125 	-1 	0.5 	-80.9329
1.14062 	-1 	0.5 	-81.3453
1.15625 	-1 	0.5 	-81.749
1.17188 	-1 	0.5 	-82.1464
1.1875 	-1 	0.5 	-82.536
1.20312 	-1 	0.5 	-82.9521
1.21875 	-1 	0.5 	-83.3515
1.23438 	-1 	0.5 	-83.8163
1.25 	-1 	0.5 	-84.2213
1.26562 	-1 	0.5 	-84.5984
1.28125 	-1 	0.5 	-85.0017
1.29688 	-1 	0.5 	-85.4194
1.3125 	-1 	0.5 	-85.8504
1.32812 	-1 	0.5 	-86.2808
1.34375 	-1 	0.5 	-86.7173
1.35938 	-1 	0.5 	-87.1228
1.375 	-1 	0.5 	-87.5405
1.39062 	-1 	0.5 	-87.9642
1.40625 	-1 	0.5 	-88.3942
1.42188 	-1 	0.5 	-88.8174
1.4375 	-1 	0.5 	-89.2111
1.45312 	-1 	0.5 	-89.6306
1.46875 	-1 	0.5 	-90.0736
1.48438 	-1 	0.5 	-90.4476
-0.5 	-0.984375 	0.5 	-86.4871
-0.484375 	-0.984375 	0.5 	-86.0985
-0.46875 	-0.984375 	0.5 	-85.777
-0.453125 	-0.984375 	0.5 	-85.4622
-0.4375 	-0.984375 	0.5 	-85.1504
-0.421875 	-0.984375 	0.5 	-84.8225
-0.40625 	-0.984375 	0.5 	-84.3339
-0.390625 	-0.984375 	0.5 	-83.8554
-0.375 	-0.984375 	0.5 	-83.506
-0.359375 	-0.984375 	0.5 	-83.1311
-0.34375 	-0.984375 	0.5 	-82.7503
-0.328125 	-0.984375 	0.5 	-82.4332
-0.3125 	-0.984375 	0.5 	-82.1704
-0.296875 	-0.984375 	0.5 	-81.8405
-0.28125 	-0.984375 	0.5 	-81.4751
-0.265625 	-0.984375 	0.5 	-81.1097
-0.25 	-0.984375 	0.5 	-80.7951
-0.234375 	-0.984375 	0.5 	-80.6216
-0.21875 	-0.984375 	0.5 	-80.3795
-0.203125 	-0.984375 	0.5 	-80.0011
-0.1875 	-0.984375 	0.5 	-79.6847
-0.171875 	-0.984375 	0.5 	-79.2962
-0.15625 	-0.984375 	0.5 	-78.9495
-0.140625 	-0.984375 	0.5 	-78.6763
-0.125 	-0.984375 	0.5 	-78.378
-0.109375 	-0.984375 	0.5 	-78.1287
-0.09375 	-0.984375 	0.5 	-77.8592
-0.078125 	-0.984375 	0.5 	-77.5591
-0.0625 	-0.984375 	0.5 	-77.3032
-0.046875 	-0.984375 	0.5 	-77.017
-0.03125 	-0.984375 	0.5 	-76.7593
-0.015625 	-0.984375 	0.5 	-76.4834
0 	-0.984375 	0.5 	-76.1242
0.015625 	-0.984375 	0.5 	-75.8216
0.03125 	-0.984375 	0.5 	-75.5629
0.046875 	-0.984375 	0.5 	-75.5619
0.0625 	-0.984375 	0.5 	-75.2678
0.078125 	-0.984375 	0.5 	-75.1391
0.09375 	-0.984375 	0.5 	-74.7765
0.109375 	-0.984375 	0.5 	-74.5225
0.125 	-0.984375 	0.5 	-74.2827
0.140625 	-0.984375 	0.5 	-74.086
0.15625 	-0.984375 	0.5 	-73.9185
0.171875 	-0.984375 	0.5 	-73.7489
0.1875 	-0.984375 	0.5 	-73.55
0.203125 	-0.984375 	0.5 	-73.3858
0.21875 	-0.984375 	0.5 	-73.1696
0.234375 	-0.984375 	0.5 	-73.034
0.25 	-0.984375 	0.5 	-72.8389
0.265625 	-0.984375 	0.5 	-72.6495
0.28125 	-0.984375 	0.5 	-72.5041
0.296875 	-0.984375 	0.5 	-72.3502
0.3125 	-0.984375 	0.5 	-72.2146
0.328125 	-0.984375 	0.5 	-72.0645
0.34375 	-0.984375 	0.5 	-71.967
0.359375 	-0.984375 	0.5 	-71.9608
0.375 	-0.984375 	0.5 	-71.8042
0.390625 	-0.984375 	0.5 	-71.7074
0.40625 	-0.984375 	0.5 	-71.7011
0.421875 	-0.984375 	0.5 	-71.6413
0.4375 	-0.984375 	0.5 	-71.5166
0.453125 	-0.984375 	0.5 	-71.4798
0.46875 	-0.984375 	0.5 	-71.55
0.484375 	-0.984375 	0.5 	-71.467
0.5 	-0.984375 	0.5 	-71.4708
0.515625 	-0.984375 	0.5 	-71.4377
0.53125 	-0.984375 	0.5 	-71.4485
0.546875 	-0.984375 	0.5 	-71.5008
0.5625 	-0.984375 	0.5 	-71.5404
0.578125 	-0.984375 	0.5 	-71.5848
0.59375 	-0.984375 	0.5 	-71.5924
0.609375 	-0.984375 	0.5 	-71.6983
0.625 	-0.984375 	0.5 	-71.7702
0.640625 	-0.984375 	0.5 	-71.8525
0.65625 	-0.984375 	0.5 	-72.0225
0.671875 	-0.984375 	0.5 	-72.1437
0.6875 	-0.984375 	0.5 	-72.294
0.703125 	-0.984375 	0.5 	-72.4428
0.71875 	-0.984375 	0.5 	-72.6053
0.734375 	-0.984375 	0.5 	-72.7824
0.75 	-0.984375 	0.5 	-72.9544
0.765625 	-0.984375 	0.5 	-73.1663
0.78125 	-0.984375 	0.5 	-73.3733
0.796875 	-0.984375 	0.5 	-73.6188
0.8125 	-0.984375 	0.5 	-73.8722
0.828125 	-0.984375 	0.5 	-74.1312
0.84375 	-0.984375 	0.5 	-74.3717
0.859375 	-0.984375 	0.5 	-74.6502
0.875 	-0.984375 	0.5 	-74.9355
0.890625 	-0.984375 	0.5 	-75.2101
0.90625 	-0.984375 	0.5 	-75.4448
0.921875 	-0.984375 	0.5 	-75.7996
0.9375 	-0.984375 	0.5 	-76.098
0.953125 	-0.984375 	0.5 	-76.4562
0.96875 	-0.984375 	0.5 	-76.8223
0.984375 	-0.984375 	0.5 	-77.2076
1 	-0.984375 	0.5 	-77.5421
1.01562 	-0.984375 	0.5 	-77.8159
1.03125 	-0.984375 	0.5 	-78.2404
1.04688 	-0.984375 	0.5 	-78.5882
1.0625 	-0.984375 	0.5 	-79.0797
1.07812 	-0.984375 	0.5 	-79.4716
1.09375 	-0.984375 	0.5 	-79.8307
1.10938 	-0.984375 	0.5 	-80.2103
1.125 	-0.984375 	0.5 	-80.6232
1.14062 	-0.984375 	0.5 	-81.0887
1.15625 	-0.984375 	0.5 	-81.4923
1.17188 	-0.984375 	0.5 	-81.8671
1.1875 	-0.984375 	0.5 	-82.2484
1.20312 	-0.984375 	0.5 	-82.6888
1.21875 	-0.984375 	0.5 	-83.0222
1.23438 	-0.984375 	0.5 	-83.5042
1.25 	-0.984375 	0.5 	-84.0093
1.26562 	-0.984375 	0.5 	-84.4806
1.28125 	-0.984375 	0.5 	-84.8543
1.29688 	-0.984375 	0.5 	-85.2632
1.3125 	-0.984375 	0.5 	-85.6935
1.32812 	-0.984375 	0.5 	-86.1239
1.34375 	-0.984375 	0.5 	-86.5586
1.35938 	-0.984375 	0.5 	-87.0069
1.375 	-0.984375 	0.5 	-87.4264
1.39062 	-0.984375 	0.5 	-87.8534
1.40625 	-0.984375 	0.5 	-88.2767
1.42188 	-0.984375 	0.5 	-88.7239
1.4375 	-0.984375 	0.5 	-89.1469
1.45312 	-0.984375 	0.5 	-89.5738
1.46875 	-0.984375 	0.5 	-89.9785
1.48438 	-0.984375 	0.5 	-90.3572
-0.5 	-0.96875 	0.5 	-86.2829
-0.484375 	-0.96875 	0.5 	-85.942
-0.46875 	-0.96875 	0.5 	-85.6277
-0.453125 	-0.96875 	0.5 	-85.3062
-0.4375 	-0.96875 	0.5 	-84.973
-0.421875 	-0.96875 	0.5 	-84.6125
-0.40625 	-0.96875 	0.5 	-84.2222
-0.390625 	-0.96875 	0.5 	-83.7569
-0.375 	-0.96875 	0.5 	-83.322
-0.359375 	-0.96875 	0.5 	-82.9803
-0.34375 	-0.96875 	0.5 	-82.6193
-0.328125 	-0.96875 	0.5 	-82.3416
-0.3125 	-0.96875 	0.5 	-82.0459
-0.296875 	-0.96875 	0.5 	-81.5791
-0.28125 	-0.96875 	0.5 	-81.0121
-0.265625 	-0.96875 	0.5 	-80.8206
-0.25 	-0.96875 	0.5 	-80.4081
-0.234375 	-0.96875 	0.5 	-80.2503
-0.21875 	-0.96875 	0.5 	-80.0402
-0.203125 	-0.96875 	0.5 	-79.7098
-0.1875 	-0.96875 	0.5 	-79.406
-0.171875 	-0.96875 	0.5 	-78.9812
-0.15625 	-0.96875 	0.5 	-78.6577
-0.140625 	-0.96875 	0.5 	-78.3646
-0.125 	-0.96875 	0.5 	-78.0642
-0.109375 	-0.96875 	0.5 	-77.8115
-0.09375 	-0.96875 	0.5 	-77.5935
-0.078125 	-0.96875 	0.5 	-77.2852
-0.0625 	-0.96875 	0.5 	-76.9753
-0.046875 	-0.96875 	0.5 	-76.678
-0.03125 	-0.96875 	0.5 	-76.4164
-0.015625 	-0.96875 	0.5 	-76.1582
0 	-0.96875 	0.5 	-75.7997
0.015625 	-0.96875 	0.5 	-75.5086
0.03125 	-0.96875 	0.5 	-75.0675
0.046875 	-0.96875 	0.5 	-75.0624
0.0625 	-0.96875 	0.5 	-75.0948
0.078125 	-0.96875 	0.5 	-74.7263
0.09375 	-0.96875 	0.5 	-74.3905
0.109375 	-0.96875 	0.5 	-74.0938
0.125 	-0.96875 	0.5 	-73.8434
0.140625 	-0.96875 	0.5 	-73.647
0.15625 	-0.96875 	0.5 	-73.4816
0.171875 	-0.96875 	0.5 	-73.2984
0.1875 	-0.96875 	0.5 	-73.0752
0.203125 	-0.96875 	0.5 	-72.9044
0.21875 	-0.96875 	0.5 	-72.7237
0.234375 	-0.96875 	0.5 	-72.5895
0.25 	-0.96875 	0.5 	-72.3504
0.265625 	-0.96875 	0.5 	-72.1624
0.28125 	-0.96875 	0.5 	-72.0157
0.296875 	-0.96875 	0.5 	-71.8533
0.3125 	-0.96875 	0.5 	-71.7243
0.328125 	-0.96875 	0.5 	-71.7053
0.34375 	-0.96875 	0.5 	-71.5449
0.359375 	-0.96875 	0.5 	-71.3744
0.375 	-0.96875 	0.5 	-71.2389
0.390625 	-0.96875 	0.5 	-71.1664
0.40625 	-0.96875 	0.5 	-71.11
0.421875 	-0.96875 	0.5 	-71.106
0.4375 	-0.96875 	0.5 	-71.0045
0.453125 	-0.96875 	0.5 	-70.9773
0.46875 	-0.96875 	0.5 	-70.9478
0.484375 	-0.96875 	0.5 	-70.968
0.5 	-0.96875 	0.5 	-70.9228
0.515625 	-0.96875 	0.5 	-70.9058
0.53125 	-0.96875 	0.5 	-70.9105
0.546875 	-0.96875 	0.5 	-70.9843
0.5625 	-0.96875 	0.5 	-70.9802
0.578125 	-0.96875 	0.5 	-71.0041
0.59375 	-0.96875 	0.5 	-71.094
0.609375 	-0.96875 	0.5 	-71.1713
0.625 	-0.96875 	0.5 	-71.2436
0.640625 	-0.96875 	0.5 	-71.3383
0.65625 	-0.96875 	0.5 	-71.4743
0.671875 	-0.96875 	0.5 	-71.6121
0.6875 	-0.96875 	0.5 	-71.7545
0.703125 	-0.96875 	0.5 	-71.9013
0.71875 	-0.96875 	0.5 	-72.0668
0.734375 	-0.96875 	0.5 	-72.2663
0.75 	-0.96875 	0.5 	-72.4669
0.765625 	-0.96875 	0.5 	-72.6653
0.78125 	-0.96875 	0.5 	-72.869
0.796875 	-0.96875 	0.5 	-73.1178
0.8125 	-0.96875 	0.5 	-73.373
0.828125 	-0.96875 	0.5 	-73.6243
0.84375 	-0.96875 	0.5 	-73.9209
0.859375 	-0.96875 	0.5 	-74.1693
0.875 	-0.96875 	0.5 	-74.4719
0.890625 	-0.96875 	0.5 	-74.8038
0.90625 	-0.96875 	0.5 	-75.0917
0.921875 	-0.96875 	0.5 	-75.3758
0.9375 	-0.96875 	0.5 	-75.6846
0.953125 	-0.96875 	0.5 	-76.0185
0.96875 	-0.96875 	0.5 	-76.3715
0.984375 	-0.96875 	0.5 	-76.783
1 	-0.96875 	0.5 	-77.1799
1.01562 	-0.96875 	0.5 	-77.4776
1.03125 	-0.96875 	0.5 	-77.9082
1.04688 	-0.96875 	0.5 	-78.3256
1.0625 	-0.96875 	0.5 	-78.7061
1.07812 	-0.96875 	0.5 	-79.0933
1.09375 	-0.96875 	0.5 	-79.4986
1.10938 	-0.96875 	0.5 	-79.8859
1.125 	-0.96875 	0.5 	-80.3798
1.14062 	-0.96875 	0.5 	-80.8361
1.15625 	-0.96875 	0.5 	-81.2427
1.17188 	-0.96875 	0.5 	-81.6733
1.1875 	-0.96875 	0.5 	-82.0425
1.20312 	-0.96875 	0.5 	-82.4118
1.21875 	-0.96875 	0.5 	-82.8601
1.23438 	-0.96875 	0.5 	-83.3856
1.25 	-0.96875 	0.5 	-83.8946
1.26562 	-0.96875 	0.5 	-84.2806
1.28125 	-0.96875 	0.5 	-84.81
1.29688 	-0.96875 	0.5 	-85.1303
1.3125 	-0.96875 	0.5 	-85.5411
1.32812 	-0.96875 	0.5 	-85.9829
1.34375 	-0.96875 	0.5 	-86.4034
1.35938 	-0.96875 	0.5 	-86.8708
1.375 	-0.96875 	0.5 	-87.3166
1.39062 	-0.96875 	0.5 	-87.7425
1.40625 	-0.96875 	0.5 	-88.1746
1.42188 	-0.96875 	0.5 	-88.6196
1.4375 	-0.96875 	0.5 	-89.051
1.45312 	-0.96875 	0.5 	-89.4516
1.46875 	-0.96875 	0.5 	-89.7749
1.48438 	-0.96875 	0.5 	-90.2634
-0.5 	-0.953125 	0.5 	-86.1145
-0.484375 	-0.953125 	0.5 	-85.7278
-0.46875 	-0.953125 	0.5 	-85.3982
-0.453125 	-0.953125 	0.5 	-85.0664
-0.4375 	-0.953125 	0.5 	-84.7234
-0.421875 	-0.953125 	0.5 	-84.3262
-0.40625 	-0.953125 	0.5 	-83.9157
-0.390625 	-0.953125 	0.5 	-83.533
-0.375 	-0.953125 	0.5 	-83.1502
-0.359375 	-0.953125 	0.5 	-82.795
-0.34375 	-0.953125 	0.5 	-82.4993
-0.328125 	-0.953125 	0.5 	-82.2036
-0.3125 	-0.953125 	0.5 	-81.8655
-0.296875 	-0.953125 	0.5 	-81.4067
-0.28125 	-0.953125 	0.5 	-80.8131
-0.265625 	-0.953125 	0.5 	-80.6565
-0.25 	-0.953125 	0.5 	-80.0276
-0.234375 	-0.953125 	0.5 	-79.8641
-0.21875 	-0.953125 	0.5 	-79.6761
-0.203125 	-0.953125 	0.5 	-79.3579
-0.1875 	-0.953125 	0.5 	-79.0396
-0.171875 	-0.953125 	0.5 	-78.668
-0.15625 	-0.953125 	0.5 	-78.3511
-0.140625 	-0.953125 	0.5 	-78.0501
-0.125 	-0.953125 	0.5 	-77.757
-0.109375 	-0.953125 	0.5 	-77.496
-0.09375 	-0.953125 	0.5 	-77.2495
-0.078125 	-0.953125 	0.5 	-76.9418
-0.0625 	-0.953125 	0.5 	-76.6378
-0.046875 	-0.953125 	0.5 	-76.3365
-0.03125 	-0.953125 	0.5 	-76.0537
-0.015625 	-0.953125 	0.5 	-75.7508
0 	-0.953125 	0.5 	-75.4768
0.015625 	-0.953125 	0.5 	-75.1394
0.03125 	-0.953125 	0.5 	-74.9127
0.046875 	-0.953125 	0.5 	-74.7571
0.0625 	-0.953125 	0.5 	-74.2525
0.078125 	-0.953125 	0.5 	-74.099
0.09375 	-0.953125 	0.5 	-73.8246
0.109375 	-0.953125 	0.5 	-73.6677
0.125 	-0.953125 	0.5 	-73.4234
0.140625 	-0.953125 	0.5 	-73.2242
0.15625 	-0.953125 	0.5 	-73.0797
0.171875 	-0.953125 	0.5 	-72.8137
0.1875 	-0.953125 	0.5 	-72.5911
0.203125 	-0.953125 	0.5 	-72.3984
0.21875 	-0.953125 	0.5 	-72.2494
0.234375 	-0.953125 	0.5 	-72.1122
0.25 	-0.953125 	0.5 	-71.8774
0.265625 	-0.953125 	0.5 	-71.677
0.28125 	-0.953125 	0.5 	-71.4808
0.296875 	-0.953125 	0.5 	-71.358
0.3125 	-0.953125 	0.5 	-71.2313
0.328125 	-0.953125 	0.5 	-71.1723
0.34375 	-0.953125 	0.5 	-71.0023
0.359375 	-0.953125 	0.5 	-70.8993
0.375 	-0.953125 	0.5 	-70.7501
0.390625 	-0.953125 	0.5 	-70.6312
0.40625 	-0.953125 	0.5 	-70.6239
0.421875 	-0.953125 	0.5 	-70.5703
0.4375 	-0.953125 	0.5 	-70.5259
0.453125 	-0.953125 	0.5 	-70.4556
0.46875 	-0.953125 	0.5 	-70.1875
0.484375 	-0.953125 	0.5 	-70.3763
0.5 	-0.953125 	0.5 	-70.35
0.515625 	-0.953125 	0.5 	-70.2584
0.53125 	-0.953125 	0.5 	-70.3104
0.546875 	-0.953125 	0.5 	-70.3993
0.5625 	-0.953125 	0.5 	-70.42
0.578125 	-0.953125 	0.5 	-70.4805
0.59375 	-0.953125 	0.5 	-70.5374
0.609375 	-0.953125 	0.5 	-70.6373
0.625 	-0.953125 	0.5 	-70.7096
0.640625 	-0.953125 	0.5 	-70.7993
0.65625 	-0.953125 	0.5 	-70.9409
0.671875 	-0.953125 	0.5 	-71.0624
0.6875 	-0.953125 	0.5 	-71.206
0.703125 	-0.953125 	0.5 	-71.3637
0.71875 	-0.953125 	0.5 	-71.5434
0.734375 	-0.953125 	0.5 	-71.735
0.75 	-0.953125 	0.5 	-71.9251
0.765625 	-0.953125 	0.5 	-72.1581
0.78125 	-0.953125 	0.5 	-72.3647
0.796875 	-0.953125 	0.5 	-72.6232
0.8125 	-0.953125 	0.5 	-72.8685
0.828125 	-0.953125 	0.5 	-73.1438
0.84375 	-0.953125 	0.5 	-73.4069
0.859375 	-0.953125 	0.5 	-73.7229
0.875 	-0.953125 	0.5 	-74.1086
0.890625 	-0.953125 	0.5 	-74.3201
0.90625 	-0.953125 	0.5 	-74.5929
0.921875 	-0.953125 	0.5 	-74.9735
0.9375 	-0.953125 	0.5 	-75.2725
0.953125 	-0.953125 	0.5 	-75.607
0.96875 	-0.953125 	0.5 	-75.9382
0.984375 	-0.953125 	0.5 	-76.3197
1 	-0.953125 	0.5 	-76.7704
1.01562 	-0.953125 	0.5 	-77.1428
1.03125 	-0.953125 	0.5 	-77.5349
1.04688 	-0.953125 	0.5 	-77.9567
1.0625 	-0.953125 	0.5 	-78.2821
1.07812 	-0.953125 	0.5 	-78.7011
1.09375 	-0.953125 	0.5 	-79.135
1.10938 	-0.953125 	0.5 	-79.6092
1.125 	-0.953125 	0.5 	-80.1042
1.14062 	-0.953125 	0.5 	-80.5835
1.15625 	-0.953125 	0.5 	-80.9558
1.17188 	-0.953125 	0.5 	-81.3812
1.1875 	-0.953125 	0.5 	-81.7434
1.20312 	-0.953125 	0.5 	-82.1879
1.21875 	-0.953125 	0.5 	-82.6657
1.23438 	-0.953125 	0.5 	-83.1286
1.25 	-0.953125 	0.5 	-83.6714
1.26562 	-0.953125 	0.5 	-84.0827
1.28125 	-0.953125 	0.5 	-84.5656
1.29688 	-0.953125 	0.5 	-84.8338
1.3125 	-0.953125 	0.5 	-85.2623
1.32812 	-0.953125 	0.5 	-85.8214
1.34375 	-0.953125 	0.5 	-86.2576
1.35938 	-0.953125 	0.5 	-86.7184
1.375 	-0.953125 	0.5 	-87.1689
1.39062 	-0.953125 	0.5 	-87.6324
1.40625 	-0.953125 	0.5 	-88.0349
1.42188 	-0.953125 	0.5 	-88.4349
1.4375 	-0.953125 	0.5 	-88.9717
1.45312 	-0.953125 	0.5 	-89.3142
1.46875 	-0.953125 	0.5 	-89.7916
1.48438 	-0.953125 	0.5 	-90.1796
-0.5 	-0.9375 	0.5 	-85.9507
-0.484375 	-0.9375 	0.5 	-85.5352
-0.46875 	-0.9375 	0.5 	-85.142
-0.453125 	-0.9375 	0.5 	-84.8118
-0.4375 	-0.9375 	0.5 	-84.4685
-0.421875 	-0.9375 	0.5 	-84.0478
-0.40625 	-0.9375 	0.5 	-83.671
-0.390625 	-0.9375 	0.5 	-83.3135
-0.375 	-0.9375 	0.5 	-82.952
-0.359375 	-0.9375 	0.5 	-82.5487
-0.34375 	-0.9375 	0.5 	-82.2696
-0.328125 	-0.9375 	0.5 	-81.8494
-0.3125 	-0.9375 	0.5 	-81.5452
-0.296875 	-0.9375 	0.5 	-81.2096
-0.28125 	-0.9375 	0.5 	-80.6795
-0.265625 	-0.9375 	0.5 	-80.2785
-0.25 	-0.9375 	0.5 	-80.0939
-0.234375 	-0.9375 	0.5 	-79.7393
-0.21875 	-0.9375 	0.5 	-79.3515
-0.203125 	-0.9375 	0.5 	-79.0101
-0.1875 	-0.9375 	0.5 	-78.6791
-0.171875 	-0.9375 	0.5 	-78.3441
-0.15625 	-0.9375 	0.5 	-78.0957
-0.140625 	-0.9375 	0.5 	-77.7837
-0.125 	-0.9375 	0.5 	-77.4787
-0.109375 	-0.9375 	0.5 	-77.1863
-0.09375 	-0.9375 	0.5 	-76.9083
-0.078125 	-0.9375 	0.5 	-76.6126
-0.0625 	-0.9375 	0.5 	-76.2852
-0.046875 	-0.9375 	0.5 	-75.9748
-0.03125 	-0.9375 	0.5 	-75.7139
-0.015625 	-0.9375 	0.5 	-75.4115
0 	-0.9375 	0.5 	-75.109
0.015625 	-0.9375 	0.5 	-74.8431
0.03125 	-0.9375 	0.5 	-74.7254
0.046875 	-0.9375 	0.5 	-74.4931
0.0625 	-0.9375 	0.5 	-73.9472
0.078125 	-0.9375 	0.5 	-73.8006
0.09375 	-0.9375 	0.5 	-73.1812
0.109375 	-0.9375 	0.5 	-73.1731
0.125 	-0.9375 	0.5 	-73.0016
0.140625 	-0.9375 	0.5 	-72.9035
0.15625 	-0.9375 	0.5 	-72.6872
0.171875 	-0.9375 	0.5 	-72.357
0.1875 	-0.9375 	0.5 	-72.1268
0.203125 	-0.9375 	0.5 	-71.911
0.21875 	-0.9375 	0.5 	-71.7917
0.234375 	-0.9375 	0.5 	-71.5884
0.25 	-0.9375 	0.5 	-71.3263
0.265625 	-0.9375 	0.5 	-71.2264
0.28125 	-0.9375 	0.5 	-71.018
0.296875 	-0.9375 	0.5 	-70.8778
0.3125 	-0.9375 	0.5 	-70.7436
0.328125 	-0.9375 	0.5 	-70.6148
0.34375 	-0.9375 	0.5 	-70.4949
0.359375 	-0.9375 	0.5 	-70.3699
0.375 	-0.9375 	0.5 	-70.2448
0.390625 	-0.9375 	0.5 	-70.1581
0.40625 	-0.9375 	0.5 	-70.1128
0.421875 	-0.9375 	0.5 	-70.0291
0.4375 	-0.9375 	0.5 	-70.0226
0.453125 	-0.9375 	0.5 	-69.8719
0.46875 	-0.9375 	0.5 	-69.8142
0.484375 	-0.9375 	0.5 	-69.7323
0.5 	-0.9375 	0.5 	-69.7007
0.515625 	-0.9375 	0.5 	-69.7513
0.53125 	-0.9375 	0.5 	-69.7655
0.546875 	-0.9375 	0.5 	-69.824
0.5625 	-0.9375 	0.5 	-69.862
0.578125 	-0.9375 	0.5 	-69.9366
0.59375 	-0.9375 	0.5 	-69.9984
0.609375 	-0.9375 	0.5 	-70.0763
0.625 	-0.9375 	0.5 	-70.148
0.640625 	-0.9375 	0.5 	-70.2499
0.65625 	-0.9375 	0.5 	-70.3944
0.671875 	-0.9375 	0.5 	-70.5147
0.6875 	-0.9375 	0.5 	-70.6612
0.703125 	-0.9375 	0.5 	-70.8064
0.71875 	-0.9375 	0.5 	-71.0045
0.734375 	-0.9375 	0.5 	-71.1788
0.75 	-0.9375 	0.5 	-71.3821
0.765625 	-0.9375 	0.5 	-71.6172
0.78125 	-0.9375 	0.5 	-71.8592
0.796875 	-0.9375 	0.5 	-72.0931
0.8125 	-0.9375 	0.5 	-72.3565
0.828125 	-0.9375 	0.5 	-72.6533
0.84375 	-0.9375 	0.5 	-72.9307
0.859375 	-0.9375 	0.5 	-73.2902
0.875 	-0.9375 	0.5 	-73.5496
0.890625 	-0.9375 	0.5 	-73.8239
0.90625 	-0.9375 	0.5 	-74.1112
0.921875 	-0.9375 	0.5 	-74.4828
0.9375 	-0.9375 	0.5 	-74.8394
0.953125 	-0.9375 	0.5 	-75.2331
0.96875 	-0.9375 	0.5 	-75.6131
0.984375 	-0.9375 	0.5 	-75.9932
1 	-0.9375 	0.5 	-76.3647
1.01562 	-0.9375 	0.5 	-76.7848
1.03125 	-0.9375 	0.5 	-77.1499
1.04688 	-0.9375 	0.5 	-77.5443
1.0625 	-0.9375 	0.5 	-77.9191
1.07812 	-0.9375 	0.5 	-78.3802
1.09375 	-0.9375 	0.5 	-78.8
1.10938 	-0.9375 	0.5 	-79.2743
1.125 	-0.9375 	0.5 	-79.7686
1.14062 	-0.9375 	0.5 	-80.2173
1.15625 	-0.9375 	0.5 	-80.669
1.17188 	-0.9375 	0.5 	-81.095
1.1875 	-0.9375 	0.5 	-81.5499
1.20312 	-0.9375 	0.5 	-81.9627
1.21875 	-0.9375 	0.5 	-82.4406
1.23438 	-0.9375 	0.5 	-82.9583
1.25 	-0.9375 	0.5 	-83.414
1.26562 	-0.9375 	0.5 	-83.8933
1.28125 	-0.9375 	0.5 	-84.2823
1.29688 	-0.9375 	0.5 	-84.6798
1.3125 	-0.9375 	0.5 	-85.1537
1.32812 	-0.9375 	0.5 	-85.6276
1.34375 	-0.9375 	0.5 	-86.1149
1.35938 	-0.9375 	0.5 	-86.6045
1.375 	-0.9375 	0.5 	-87.094
1.39062 	-0.9375 	0.5 	-87.5318
1.40625 	-0.9375 	0.5 	-88.0058
1.42188 	-0.9375 	0.5 	-88.4194
1.4375 	-0.9375 	0.5 	-88.8922
1.45312 	-0.9375 	0.5 	-89.2404
1.46875 	-0.9375 	0.5 	-89.6894
1.48438 	-0.9375 	0.5 	-90.1051
-0.5 	-0.921875 	0.5 	-85.7861
-0.484375 	-0.921875 	0.5 	-85.3592
-0.46875 	-0.921875 	0.5 	-84.9655
-0.453125 	-0.921875 	0.5 	-84.5723
-0.4375 	-0.921875 	0.5 	-84.1982
-0.421875 	-0.921875 	0.5 	-83.8497
-0.40625 	-0.921875 	0.5 	-83.5012
-0.390625 	-0.921875 	0.5 	-83.1376
-0.375 	-0.921875 	0.5 	-82.745
-0.359375 	-0.921875 	0.5 	-82.3206
-0.34375 	-0.921875 	0.5 	-82.0402
-0.328125 	-0.921875 	0.5 	-81.7877
-0.3125 	-0.921875 	0.5 	-81.3675
-0.296875 	-0.921875 	0.5 	-80.9473
-0.28125 	-0.921875 	0.5 	-80.5458
-0.265625 	-0.921875 	0.5 	-80.1941
-0.25 	-0.921875 	0.5 	-79.8114
-0.234375 	-0.921875 	0.5 	-79.4287
-0.21875 	-0.921875 	0.5 	-79.0357
-0.203125 	-0.921875 	0.5 	-78.7006
-0.1875 	-0.921875 	0.5 	-78.3082
-0.171875 	-0.921875 	0.5 	-78.0746
-0.15625 	-0.921875 	0.5 	-77.7842
-0.140625 	-0.921875 	0.5 	-77.5745
-0.125 	-0.921875 	0.5 	-77.2454
-0.109375 	-0.921875 	0.5 	-76.868
-0.09375 	-0.921875 	0.5 	-76.5575
-0.078125 	-0.921875 	0.5 	-76.2292
-0.0625 	-0.921875 	0.5 	-75.923
-0.046875 	-0.921875 	0.5 	-75.613
-0.03125 	-0.921875 	0.5 	-75.3214
-0.015625 	-0.921875 	0.5 	-74.994
0 	-0.921875 	0.5 	-74.7158
0.015625 	-0.921875 	0.5 	-74.4403
0.03125 	-0.921875 	0.5 	-74.3152
0.046875 	-0.921875 	0.5 	-73.9991
0.0625 	-0.921875 	0.5 	-73.7461
0.078125 	-0.921875 	0.5 	-73.3755
0.09375 	-0.921875 	0.5 	-73.1374
0.109375 	-0.921875 	0.5 	-72.7357
0.125 	-0.921875 	0.5 	-72.5805
0.140625 	-0.921875 	0.5 	-72.4438
0.15625 	-0.921875 	0.5 	-72.1723
0.171875 	-0.921875 	0.5 	-71.9144
0.1875 	-0.921875 	0.5 	-71.6566
0.203125 	-0.921875 	0.5 	-71.4045
0.21875 	-0.921875 	0.5 	-71.2738
0.234375 	-0.921875 	0.5 	-71.1131
0.25 	-0.921875 	0.5 	-70.8701
0.265625 	-0.921875 	0.5 	-70.7209
0.28125 	-0.921875 	0.5 	-70.5456
0.296875 	-0.921875 	0.5 	-70.4021
0.3125 	-0.921875 	0.5 	-70.296
0.328125 	-0.921875 	0.5 	-70.1182
0.34375 	-0.921875 	0.5 	-69.9653
0.359375 	-0.921875 	0.5 	-69.8263
0.375 	-0.921875 	0.5 	-69.7245
0.390625 	-0.921875 	0.5 	-69.6553
0.40625 	-0.921875 	0.5 	-69.6454
0.421875 	-0.921875 	0.5 	-69.4931
0.4375 	-0.921875 	0.5 	-69.3164
0.453125 	-0.921875 	0.5 	-69.2487
0.46875 	-0.921875 	0.5 	-69.2504
0.484375 	-0.921875 	0.5 	-69.2782
0.5 	-0.921875 	0.5 	-69.2067
0.515625 	-0.921875 	0.5 	-69.1956
0.53125 	-0.921875 	0.5 	-69.1666
0.546875 	-0.921875 	0.5 	-69.2267
0.5625 	-0.921875 	0.5 	-69.1862
0.578125 	-0.921875 	0.5 	-69.3942
0.59375 	-0.921875 	0.5 	-69.4203
0.609375 	-0.921875 	0.5 	-69.5178
0.625 	-0.921875 	0.5 	-69.5985
0.640625 	-0.921875 	0.5 	-69.6947
0.65625 	-0.921875 	0.5 	-69.7893
0.671875 	-0.921875 	0.5 	-69.9238
0.6875 	-0.921875 	0.5 	-70.0903
0.703125 	-0.921875 	0.5 	-70.2465
0.71875 	-0.921875 	0.5 	-70.4356
0.734375 	-0.921875 	0.5 	-70.6485
0.75 	-0.921875 	0.5 	-70.839
0.765625 	-0.921875 	0.5 	-71.0709
0.78125 	-0.921875 	0.5 	-71.3424
0.796875 	-0.921875 	0.5 	-71.5955
0.8125 	-0.921875 	0.5 	-71.8167
0.828125 	-0.921875 	0.5 	-72.0962
0.84375 	-0.921875 	0.5 	-72.481
0.859375 	-0.921875 	0.5 	-72.7686
0.875 	-0.921875 	0.5 	-73.0561
0.890625 	-0.921875 	0.5 	-73.3548
0.90625 	-0.921875 	0.5 	-73.7099
0.921875 	-0.921875 	0.5 	-74.065
0.9375 	-0.921875 	0.5 	-74.391
0.953125 	-0.921875 	0.5 	-74.8318
0.96875 	-0.921875 	0.5 	-75.2176
0.984375 	-0.921875 	0.5 	-75.5893
1 	-0.921875 	0.5 	-76.0191
1.01562 	-0.921875 	0.5 	-76.4304
1.03125 	-0.921875 	0.5 	-76.8643
1.04688 	-0.921875 	0.5 	-77.2367
1.0625 	-0.921875 	0.5 	-77.6193
1.07812 	-0.921875 	0.5 	-78.0493
1.09375 	-0.921875 	0.5 	-78.4768
1.10938 	-0.921875 	0.5 	-78.9185
1.125 	-0.921875 	0.5 	-79.4088
1.14062 	-0.921875 	0.5 	-79.9153
1.15625 	-0.921875 	0.5 	-80.3821
1.17188 	-0.921875 	0.5 	-80.8413
1.1875 	-0.921875 	0.5 	-81.3013
1.20312 	-0.921875 	0.5 	-81.7375
1.21875 	-0.921875 	0.5 	-82.2111
1.23438 	-0.921875 	0.5 	-82.7033
1.25 	-0.921875 	0.5 	-83.1664
1.26562 	-0.921875 	0.5 	-83.6695
1.28125 	-0.921875 	0.5 	-84.1765
1.29688 	-0.921875 	0.5 	-84.6301
1.3125 	-0.921875 	0.5 	-85.0794
1.32812 	-0.921875 	0.5 	-85.5256
1.34375 	-0.921875 	0.5 	-85.9802
1.35938 	-0.921875 	0.5 	-86.4874
1.375 	-0.921875 	0.5 	-86.9926
1.39062 	-0.921875 	0.5 	-87.4311
1.40625 	-0.921875 	0.5 	-87.9207
1.42188 	-0.921875 	0.5 	-88.3615
1.4375 	-0.921875 	0.5 	-88.8054
1.45312 	-0.921875 	0.5 	-89.1733
1.46875 	-0.921875 	0.5 	-89.5499
1.48438 	-0.921875 	0.5 	-90.0835
-0.5 	-0.90625 	0.5 	-85.6214
-0.484375 	-0.90625 	0.5 	-85.2161
-0.46875 	-0.90625 	0.5 	-84.8215
-0.453125 	-0.90625 	0.5 	-84.4371
-0.4375 	-0.90625 	0.5 	-84.0494
-0.421875 	-0.90625 	0.5 	-83.6526
-0.40625 	-0.90625 	0.5 	-83.3039
-0.390625 	-0.90625 	0.5 	-82.9412
-0.375 	-0.90625 	0.5 	-82.518
-0.359375 	-0.90625 	0.5 	-82.0924
-0.34375 	-0.90625 	0.5 	-81.7557
-0.328125 	-0.90625 	0.5 	-81.5103
-0.3125 	-0.90625 	0.5 	-81.0874
-0.296875 	-0.90625 	0.5 	-80.6872
-0.28125 	-0.90625 	0.5 	-80.3055
-0.265625 	-0.90625 	0.5 	-79.9359
-0.25 	-0.90625 	0.5 	-79.5569
-0.234375 	-0.90625 	0.5 	-79.1525
-0.21875 	-0.90625 	0.5 	-78.7458
-0.203125 	-0.90625 	0.5 	-78.3938
-0.1875 	-0.90625 	0.5 	-78.0469
-0.171875 	-0.90625 	0.5 	-77.8114
-0.15625 	-0.90625 	0.5 	-77.5695
-0.140625 	-0.90625 	0.5 	-77.2499
-0.125 	-0.90625 	0.5 	-76.9088
-0.109375 	-0.90625 	0.5 	-76.4759
-0.09375 	-0.90625 	0.5 	-76.1965
-0.078125 	-0.90625 	0.5 	-75.9008
-0.0625 	-0.90625 	0.5 	-75.5614
-0.046875 	-0.90625 	0.5 	-75.2348
-0.03125 	-0.90625 	0.5 	-74.8962
-0.015625 	-0.90625 	0.5 	-74.5684
0 	-0.90625 	0.5 	-74.3518
0.015625 	-0.90625 	0.5 	-74.0531
0.03125 	-0.90625 	0.5 	-73.8821
0.046875 	-0.90625 	0.5 	-73.6525
0.0625 	-0.90625 	0.5 	-73.3288
0.078125 	-0.90625 	0.5 	-72.9453
0.09375 	-0.90625 	0.5 	-72.4564
0.109375 	-0.90625 	0.5 	-72.3862
0.125 	-0.90625 	0.5 	-72.1451
0.140625 	-0.90625 	0.5 	-72.0738
0.15625 	-0.90625 	0.5 	-71.7317
0.171875 	-0.90625 	0.5 	-71.5103
0.1875 	-0.90625 	0.5 	-71.184
0.203125 	-0.90625 	0.5 	-70.9639
0.21875 	-0.90625 	0.5 	-70.7699
0.234375 	-0.90625 	0.5 	-70.6064
0.25 	-0.90625 	0.5 	-70.3275
0.265625 	-0.90625 	0.5 	-70.247
0.28125 	-0.90625 	0.5 	-70.05
0.296875 	-0.90625 	0.5 	-69.9614
0.3125 	-0.90625 	0.5 	-69.74
0.328125 	-0.90625 	0.5 	-69.5817
0.34375 	-0.90625 	0.5 	-69.472
0.359375 	-0.90625 	0.5 	-69.3059
0.375 	-0.90625 	0.5 	-69.2116
0.390625 	-0.90625 	0.5 	-69.1191
0.40625 	-0.90625 	0.5 	-69.0628
0.421875 	-0.90625 	0.5 	-68.8676
0.4375 	-0.90625 	0.5 	-68.7461
0.453125 	-0.90625 	0.5 	-68.705
0.46875 	-0.90625 	0.5 	-68.6587
0.484375 	-0.90625 	0.5 	-68.6584
0.5 	-0.90625 	0.5 	-68.6481
0.515625 	-0.90625 	0.5 	-68.6804
0.53125 	-0.90625 	0.5 	-68.6244
0.546875 	-0.90625 	0.5 	-68.6046
0.5625 	-0.90625 	0.5 	-68.6509
0.578125 	-0.90625 	0.5 	-68.713
0.59375 	-0.90625 	0.5 	-68.8261
0.609375 	-0.90625 	0.5 	-68.901
0.625 	-0.90625 	0.5 	-68.9973
0.640625 	-0.90625 	0.5 	-69.0967
0.65625 	-0.90625 	0.5 	-69.2036
0.671875 	-0.90625 	0.5 	-69.3302
0.6875 	-0.90625 	0.5 	-69.4862
0.703125 	-0.90625 	0.5 	-69.6704
0.71875 	-0.90625 	0.5 	-69.879
0.734375 	-0.90625 	0.5 	-70.0645
0.75 	-0.90625 	0.5 	-70.2788
0.765625 	-0.90625 	0.5 	-70.518
0.78125 	-0.90625 	0.5 	-70.7773
0.796875 	-0.90625 	0.5 	-71.0669
0.8125 	-0.90625 	0.5 	-71.3038
0.828125 	-0.90625 	0.5 	-71.6235
0.84375 	-0.90625 	0.5 	-71.9027
0.859375 	-0.90625 	0.5 	-72.0555
0.875 	-0.90625 	0.5 	-72.4589
0.890625 	-0.90625 	0.5 	-72.8811
0.90625 	-0.90625 	0.5 	-73.2236
0.921875 	-0.90625 	0.5 	-73.586
0.9375 	-0.90625 	0.5 	-73.9861
0.953125 	-0.90625 	0.5 	-74.4696
0.96875 	-0.90625 	0.5 	-74.8057
0.984375 	-0.90625 	0.5 	-75.2073
1 	-0.90625 	0.5 	-75.6664
1.01562 	-0.90625 	0.5 	-76.0433
1.03125 	-0.90625 	0.5 	-76.4795
1.04688 	-0.90625 	0.5 	-76.814
1.0625 	-0.90625 	0.5 	-77.2341
1.07812 	-0.90625 	0.5 	-77.6963
1.09375 	-0.90625 	0.5 	-78.1342
1.10938 	-0.90625 	0.5 	-78.5839
1.125 	-0.90625 	0.5 	-79.1888
1.14062 	-0.90625 	0.5 	-79.8423
1.15625 	-0.90625 	0.5 	-80.0929
1.17188 	-0.90625 	0.5 	-80.529
1.1875 	-0.90625 	0.5 	-81.0062
1.20312 	-0.90625 	0.5 	-81.4835
1.21875 	-0.90625 	0.5 	-81.9492
1.23438 	-0.90625 	0.5 	-82.4641
1.25 	-0.90625 	0.5 	-82.9791
1.26562 	-0.90625 	0.5 	-83.4523
1.28125 	-0.90625 	0.5 	-84.0519
1.29688 	-0.90625 	0.5 	-84.494
1.3125 	-0.90625 	0.5 	-84.9496
1.32812 	-0.90625 	0.5 	-85.392
1.34375 	-0.90625 	0.5 	-85.8473
1.35938 	-0.90625 	0.5 	-86.3428
1.375 	-0.90625 	0.5 	-86.85
1.39062 	-0.90625 	0.5 	-87.3305
1.40625 	-0.90625 	0.5 	-87.7876
1.42188 	-0.90625 	0.5 	-88.3252
1.4375 	-0.90625 	0.5 	-88.7502
1.45312 	-0.90625 	0.5 	-89.2206
1.46875 	-0.90625 	0.5 	-89.5912
1.48438 	-0.90625 	0.5 	-90.0611
-0.5 	-0.890625 	0.5 	-85.4697
-0.484375 	-0.890625 	0.5 	-85.0882
-0.46875 	-0.890625 	0.5 	-84.7067
-0.453125 	-0.890625 	0.5 	-84.2702
-0.4375 	-0.890625 	0.5 	-83.893
-0.421875 	-0.890625 	0.5 	-83.5311
-0.40625 	-0.890625 	0.5 	-83.1222
-0.390625 	-0.890625 	0.5 	-82.7447
-0.375 	-0.890625 	0.5 	-82.324
-0.359375 	-0.890625 	0.5 	-81.9166
-0.34375 	-0.890625 	0.5 	-81.5119
-0.328125 	-0.890625 	0.5 	-81.1726
-0.3125 	-0.890625 	0.5 	-80.8247
-0.296875 	-0.890625 	0.5 	-80.4647
-0.28125 	-0.890625 	0.5 	-80.0472
-0.265625 	-0.890625 	0.5 	-79.6409
-0.25 	-0.890625 	0.5 	-79.299
-0.234375 	-0.890625 	0.5 	-78.8657
-0.21875 	-0.890625 	0.5 	-78.5433
-0.203125 	-0.890625 	0.5 	-78.1372
-0.1875 	-0.890625 	0.5 	-77.8459
-0.171875 	-0.890625 	0.5 	-77.3254
-0.15625 	-0.890625 	0.5 	-77.1378
-0.140625 	-0.890625 	0.5 	-76.9252
-0.125 	-0.890625 	0.5 	-76.5348
-0.109375 	-0.890625 	0.5 	-76.1398