-0.5 	-1 	0.5 	39.3789 	0.29918 	-5.94898e-19
-0.484375 	-1 	0.5 	39.3739 	0.293708 	-1.17379e-19
-0.46875 	-1 	0.5 	39.369 	0.288437 	-4.01542e-20
-0.453125 	-1 	0.5 	39.3641 	0.282953 	-6.85056e-20
-0.4375 	-1 	0.5 	39.3593 	0.27746 	-5.08609e-20
-0.421875 	-1 	0.5 	39.355 	0.271902 	-2.82114e-19
-0.40625 	-1 	0.5 	39.3509 	0.266312 	-9.61937e-19
-0.390625 	-1 	0.5 	39.3468 	0.26137 	-4.33915e-19
-0.375 	-1 	0.5 	39.3425 	0.256226 	8.89129e-20
-0.359375 	-1 	0.5 	39.3385 	0.250437 	4.92951e-20
-0.34375 	-1 	0.5 	39.3335 	0.244116 	6.09509e-21
-0.328125 	-1 	0.5 	39.3301 	0.238422 	1.88106e-19
-0.3125 	-1 	0.5 	39.3261 	0.231749 	-2.63015e-19
-0.296875 	-1 	0.5 	39.323 	0.225355 	-7.19091e-19
-0.28125 	-1 	0.5 	39.32 	0.220108 	-9.05431e-20
-0.265625 	-1 	0.5 	39.317 	0.214457 	7.30331e-20
-0.25 	-1 	0.5 	39.3148 	0.207297 	1.05977e-20
-0.234375 	-1 	0.5 	39.3126 	0.200116 	-5.18934e-20
-0.21875 	-1 	0.5 	39.3101 	0.19332 	-3.70232e-20
-0.203125 	-1 	0.5 	39.3073 	0.186897 	8.09589e-20
-0.1875 	-1 	0.5 	39.3042 	0.180737 	-7.24329e-20
-0.171875 	-1 	0.5 	39.3011 	0.175826 	-4.69722e-19
-0.15625 	-1 	0.5 	39.2993 	0.169073 	-1.86412e-19
-0.140625 	-1 	0.5 	39.2974 	0.162368 	2.94585e-19
-0.125 	-1 	0.5 	39.2954 	0.156718 	-2.92752e-19
-0.109375 	-1 	0.5 	39.2939 	0.148993 	-7.36582e-20
-0.09375 	-1 	0.5 	39.2924 	0.141425 	1.68527e-19
-0.078125 	-1 	0.5 	39.291 	0.134975 	1.17689e-19
-0.0625 	-1 	0.5 	39.2896 	0.128431 	6.18602e-20
-0.046875 	-1 	0.5 	39.2884 	0.122555 	6.30437e-20
-0.03125 	-1 	0.5 	39.2879 	0.116586 	4.31306e-20
-0.015625 	-1 	0.5 	39.2869 	0.110374 	7.82668e-20
0 	-1 	0.5 	39.2859 	0.104539 	2.97969e-19
0.015625 	-1 	0.5 	39.285 	0.0986942 	4.12903e-19
0.03125 	-1 	0.5 	39.2843 	0.0926594 	1.48533e-19
0.046875 	-1 	0.5 	39.2843 	0.0868659 	1.08572e-20
0.0625 	-1 	0.5 	39.2839 	0.0806162 	-5.96707e-21
0.078125 	-1 	0.5 	39.2839 	0.0745503 	-3.22174e-20
0.09375 	-1 	0.5 	39.2837 	0.0686652 	-2.67132e-20
0.109375 	-1 	0.5 	39.284 	0.0626111 	-8.63236e-20
0.125 	-1 	0.5 	39.2841 	0.0565985 	-2.18152e-19
0.140625 	-1 	0.5 	39.2842 	0.0506591 	-3.79936e-19
0.15625 	-1 	0.5 	39.2841 	0.044574 	-6.61228e-19
0.171875 	-1 	0.5 	39.284 	0.0387553 	-6.24393e-19
0.1875 	-1 	0.5 	39.2836 	0.0335446 	4.00169e-20
0.203125 	-1 	0.5 	39.2837 	0.0281233 	-6.33908e-20
0.21875 	-1 	0.5 	39.2838 	0.023323 	-2.04819e-20
0.234375 	-1 	0.5 	39.2844 	0.0179717 	-3.99742e-21
0.25 	-1 	0.5 	39.2854 	0.0120353 	-2.91406e-21
0.265625 	-1 	0.5 	39.2857 	0.0069463 	2.28858e-20
0.28125 	-1 	0.5 	39.286 	0.00212837 	3.96158e-20
0.296875 	-1 	0.5 	39.2864 	-0.00328395 	-1.76674e-19
0.3125 	-1 	0.5 	39.2863 	-0.0086483 	-5.73991e-19
0.328125 	-1 	0.5 	39.286 	-0.0137626 	-7.34033e-20
0.34375 	-1 	0.5 	39.2861 	-0.0187228 	-1.60386e-20
0.359375 	-1 	0.5 	39.2874 	-0.0242511 	4.04487e-19
0.375 	-1 	0.5 	39.2884 	-0.0288898 	-2.70649e-19
0.390625 	-1 	0.5 	39.2883 	-0.0339633 	3.20649e-19
0.40625 	-1 	0.5 	39.2878 	-0.0397975 	1.31467e-19
0.421875 	-1 	0.5 	39.2878 	-0.045592 	-1.54823e-19
0.4375 	-1 	0.5 	39.2886 	-0.051032 	-3.23684e-19
0.453125 	-1 	0.5 	39.2898 	-0.0559945 	-4.30477e-19
0.46875 	-1 	0.5 	39.291 	-0.0602544 	1.68087e-20
0.484375 	-1 	0.5 	39.2919 	-0.06546 	-8.05175e-20
0.5 	-1 	0.5 	39.2916 	-0.070484 	-1.71264e-19
0.515625 	-1 	0.5 	39.2916 	-0.0759075 	5.57591e-20
0.53125 	-1 	0.5 	39.2926 	-0.0812765 	-5.75353e-21
0.546875 	-1 	0.5 	39.2935 	-0.0866671 	2.11853e-19
0.5625 	-1 	0.5 	39.2939 	-0.0920797 	1.6336e-19
0.578125 	-1 	0.5 	39.2949 	-0.097292 	-8.71113e-20
0.59375 	-1 	0.5 	39.2956 	-0.103298 	-2.68418e-19
0.609375 	-1 	0.5 	39.296 	-0.108684 	-7.78574e-20
0.625 	-1 	0.5 	39.2964 	-0.115705 	-2.77994e-19
0.640625 	-1 	0.5 	39.2978 	-0.120996 	-1.67996e-19
0.65625 	-1 	0.5 	39.2996 	-0.125758 	7.39178e-21
0.671875 	-1 	0.5 	39.3005 	-0.131335 	9.97481e-20
0.6875 	-1 	0.5 	39.3015 	-0.136669 	9.82803e-21
0.703125 	-1 	0.5 	39.3027 	-0.141893 	-3.2714e-21
0.71875 	-1 	0.5 	39.3037 	-0.147254 	-8.47479e-21
0.734375 	-1 	0.5 	39.3054 	-0.153501 	-1.7865e-19
0.75 	-1 	0.5 	39.3075 	-0.159649 	-7.99246e-20
0.765625 	-1 	0.5 	39.3087 	-0.165391 	1.87819e-19
0.78125 	-1 	0.5 	39.3107 	-0.171083 	4.27348e-20
0.796875 	-1 	0.5 	39.3124 	-0.177179 	-2.05555e-21
0.8125 	-1 	0.5 	39.3144 	-0.184956 	-4.77125e-19
0.828125 	-1 	0.5 	39.3162 	-0.19001 	-1.92288e-19
0.84375 	-1 	0.5 	39.3181 	-0.195314 	1.2784e-19
0.859375 	-1 	0.5 	39.3204 	-0.201327 	1.1265e-20
0.875 	-1 	0.5 	39.3232 	-0.207373 	7.53232e-21
0.890625 	-1 	0.5 	39.326 	-0.21342 	3.79967e-21
0.90625 	-1 	0.5 	39.329 	-0.219179 	4.04896e-20
0.921875 	-1 	0.5 	39.3316 	-0.225002 	-1.43002e-19
0.9375 	-1 	0.5 	39.3339 	-0.23108 	-3.49498e-19
0.953125 	-1 	0.5 	39.3373 	-0.237737 	4.04985e-20
0.96875 	-1 	0.5 	39.3405 	-0.243261 	-7.94515e-20
0.984375 	-1 	0.5 	39.3431 	-0.250583 	5.53684e-21
1 	-1 	0.5 	39.3465 	-0.255936 	5.69038e-22
1.01562 	-1 	0.5 	39.3494 	-0.261137 	-2.42628e-21
1.03125 	-1 	0.5 	39.355 	-0.266809 	2.31806e-19
1.04688 	-1 	0.5 	39.3591 	-0.273131 	4.79833e-20
1.0625 	-1 	0.5 	39.3631 	-0.278615 	1.40584e-19
1.07812 	-1 	0.5 	39.3669 	-0.284346 	1.19372e-19
1.09375 	-1 	0.5 	39.3706 	-0.290066 	1.12769e-19
1.10938 	-1 	0.5 	39.3749 	-0.295702 	1.39789e-19
1.125 	-1 	0.5 	39.3791 	-0.301163 	1.00534e-19
1.14062 	-1 	0.5 	39.3835 	-0.306896 	1.13702e-19
1.15625 	-1 	0.5 	39.3882 	-0.311808 	-9.8836e-20
1.17188 	-1 	0.5 	39.393 	-0.316713 	-2.99108e-19
1.1875 	-1 	0.5 	39.3972 	-0.321331 	-2.61949e-19
1.20312 	-1 	0.5 	39.4029 	-0.326162 	-2.29703e-19
1.21875 	-1 	0.5 	39.4086 	-0.331114 	-3.27663e-20
1.23438 	-1 	0.5 	39.4143 	-0.335649 	-1.99839e-20
1.25 	-1 	0.5 	39.4201 	-0.340033 	-1.30501e-19
1.26562 	-1 	0.5 	39.4259 	-0.34431 	-1.46551e-19
1.28125 	-1 	0.5 	39.4313 	-0.348467 	6.72691e-20
1.29688 	-1 	0.5 	39.4365 	-0.353098 	4.75974e-21
1.3125 	-1 	0.5 	39.4415 	-0.357633 	-9.30809e-21
1.32812 	-1 	0.5 	39.4472 	-0.361862 	3.62956e-21
1.34375 	-1 	0.5 	39.4531 	-0.365459 	-8.29341e-20
1.35938 	-1 	0.5 	39.4591 	-0.368895 	-2.01794e-19
1.375 	-1 	0.5 	39.4648 	-0.37282 	-1.17726e-19
1.39062 	-1 	0.5 	39.471 	-0.37546 	-1.29174e-19
1.40625 	-1 	0.5 	39.4771 	-0.378022 	-4.93111e-19
1.42188 	-1 	0.5 	39.483 	-0.380609 	-5.81291e-19
1.4375 	-1 	0.5 	39.4886 	-0.38418 	-2.94052e-19
1.45312 	-1 	0.5 	39.4952 	-0.387978 	-3.5672e-19
1.46875 	-1 	0.5 	39.5021 	-0.389245 	-5.81644e-22
1.48438 	-1 	0.5 	39.5076 	-0.392976 	2.47716e-19
-0.5 	-0.984375 	0.5 	39.3714 	0.303143 	-3.26202e-21
-0.484375 	-0.984375 	0.5 	39.3669 	0.298571 	-1.77962e-19
-0.46875 	-0.984375 	0.5 	39.362 	0.293162 	-6.9743e-20
-0.453125 	-0.984375 	0.5 	39.357 	0.287683 	-2.12249e-20
-0.4375 	-0.984375 	0.5 	39.3522 	0.282176 	-3.10462e-20
-0.421875 	-0.984375 	0.5 	39.3479 	0.27663 	-1.2446e-19
-0.40625 	-0.984375 	0.5 	39.3437 	0.271162 	-5.10169e-19
-0.390625 	-0.984375 	0.5 	39.3394 	0.266036 	1.94108e-20
-0.375 	-0.984375 	0.5 	39.3348 	0.260244 	3.09467e-19
-0.359375 	-0.984375 	0.5 	39.3315 	0.253523 	8.11923e-20
-0.34375 	-0.984375 	0.5 	39.3265 	0.249522 	-6.68356e-21
-0.328125 	-0.984375 	0.5 	39.3216 	0.24201 	-2.69251e-20
-0.3125 	-0.984375 	0.5 	39.3177 	0.235741 	3.45188e-20
-0.296875 	-0.984375 	0.5 	39.3147 	0.229901 	1.14214e-19
-0.28125 	-0.984375 	0.5 	39.3116 	0.224061 	1.93909e-19
-0.265625 	-0.984375 	0.5 	39.3089 	0.217445 	1.65288e-19
-0.25 	-0.984375 	0.5 	39.3073 	0.210835 	1.355e-19
-0.234375 	-0.984375 	0.5 	39.3047 	0.203913 	5.55477e-20
-0.21875 	-0.984375 	0.5 	39.3025 	0.194265 	-1.34625e-19
-0.203125 	-0.984375 	0.5 	39.2996 	0.18944 	-2.81035e-20
-0.1875 	-0.984375 	0.5 	39.2966 	0.183124 	-2.07329e-20
-0.171875 	-0.984375 	0.5 	39.294 	0.177444 	-1.61629e-19
-0.15625 	-0.984375 	0.5 	39.292 	0.170738 	3.1573e-19
-0.140625 	-0.984375 	0.5 	39.2898 	0.164112 	5.7798e-19
-0.125 	-0.984375 	0.5 	39.2873 	0.157956 	-9.19552e-20
-0.109375 	-0.984375 	0.5 	39.286 	0.15138 	-1.53413e-19
-0.09375 	-0.984375 	0.5 	39.2841 	0.14376 	4.87103e-19
-0.078125 	-0.984375 	0.5 	39.2829 	0.136667 	1.65271e-19
-0.0625 	-0.984375 	0.5 	39.2814 	0.129724 	7.53639e-20
-0.046875 	-0.984375 	0.5 	39.2807 	0.124555 	1.11306e-19
-0.03125 	-0.984375 	0.5 	39.2804 	0.117827 	3.48656e-20
-0.015625 	-0.984375 	0.5 	39.2794 	0.111639 	-3.01046e-19
0 	-0.984375 	0.5 	39.2785 	0.105382 	-3.13927e-20
0.015625 	-0.984375 	0.5 	39.2775 	0.0992854 	2.36663e-19
0.03125 	-0.984375 	0.5 	39.2769 	0.0933767 	1.48803e-19
0.046875 	-0.984375 	0.5 	39.2767 	0.0873357 	7.85125e-20
0.0625 	-0.984375 	0.5 	39.2765 	0.0811968 	3.33013e-20
0.078125 	-0.984375 	0.5 	39.276 	0.074839 	-4.2384e-20
0.09375 	-0.984375 	0.5 	39.2762 	0.0687518 	-3.81704e-19
0.109375 	-0.984375 	0.5 	39.2764 	0.0626777 	-4.85114e-19
0.125 	-0.984375 	0.5 	39.2767 	0.0566325 	-4.98939e-19
0.140625 	-0.984375 	0.5 	39.2769 	0.0504662 	-1.95542e-19
0.15625 	-0.984375 	0.5 	39.2766 	0.0434731 	-1.1828e-19
0.171875 	-0.984375 	0.5 	39.2765 	0.0377795 	-6.38885e-20
0.1875 	-0.984375 	0.5 	39.2767 	0.0333431 	-3.76441e-20
0.203125 	-0.984375 	0.5 	39.2771 	0.0280462 	-3.96017e-20
0.21875 	-0.984375 	0.5 	39.2779 	0.0222726 	-2.61001e-20
0.234375 	-0.984375 	0.5 	39.2783 	0.016925 	-5.12695e-21
0.25 	-0.984375 	0.5 	39.279 	0.0115955 	6.41331e-21
0.265625 	-0.984375 	0.5 	39.2791 	0.00658952 	3.74478e-21
0.28125 	-0.984375 	0.5 	39.2798 	0.00168864 	1.33305e-19
0.296875 	-0.984375 	0.5 	39.2805 	-0.0039911 	9.98905e-20
0.3125 	-0.984375 	0.5 	39.2803 	-0.00932603 	-2.7721e-19
0.328125 	-0.984375 	0.5 	39.2805 	-0.0135566 	-1.63012e-19
0.34375 	-0.984375 	0.5 	39.2805 	-0.0188112 	-4.16437e-20
0.359375 	-0.984375 	0.5 	39.281 	-0.0241146 	-3.05001e-20
0.375 	-0.984375 	0.5 	39.2822 	-0.0293059 	-3.22156e-19
0.390625 	-0.984375 	0.5 	39.2822 	-0.0344894 	2.1949e-19
0.40625 	-0.984375 	0.5 	39.282 	-0.040403 	-2.36986e-19
0.421875 	-0.984375 	0.5 	39.2824 	-0.0455063 	-1.87754e-19
0.4375 	-0.984375 	0.5 	39.2826 	-0.0508661 	-7.89009e-20
0.453125 	-0.984375 	0.5 	39.2835 	-0.0562724 	-1.87647e-19
0.46875 	-0.984375 	0.5 	39.285 	-0.060361 	-1.67872e-20
0.484375 	-0.984375 	0.5 	39.2856 	-0.0660736 	-4.90963e-20
0.5 	-0.984375 	0.5 	39.2855 	-0.0711842 	-1.91141e-19
0.515625 	-0.984375 	0.5 	39.2853 	-0.0766105 	-4.67579e-20
0.53125 	-0.984375 	0.5 	39.2862 	-0.0819038 	2.37029e-21
0.546875 	-0.984375 	0.5 	39.2871 	-0.0873249 	1.04133e-19
0.5625 	-0.984375 	0.5 	39.2878 	-0.0930458 	1.65012e-19
0.578125 	-0.984375 	0.5 	39.2889 	-0.098191 	7.07903e-20
0.59375 	-0.984375 	0.5 	39.2899 	-0.103819 	-9.00366e-20
0.609375 	-0.984375 	0.5 	39.2894 	-0.109003 	-2.83852e-20
0.625 	-0.984375 	0.5 	39.2899 	-0.115112 	-1.18193e-19
0.640625 	-0.984375 	0.5 	39.2916 	-0.12025 	-1.00855e-19
0.65625 	-0.984375 	0.5 	39.2929 	-0.126441 	-3.49434e-20
0.671875 	-0.984375 	0.5 	39.2935 	-0.132702 	3.54129e-20
0.6875 	-0.984375 	0.5 	39.2949 	-0.137496 	4.81528e-19
0.703125 	-0.984375 	0.5 	39.2957 	-0.143002 	2.47227e-19
0.71875 	-0.984375 	0.5 	39.2965 	-0.148782 	-8.68174e-21
0.734375 	-0.984375 	0.5 	39.298 	-0.15468 	-7.30807e-20
0.75 	-0.984375 	0.5 	39.3001 	-0.160734 	7.84767e-21
0.765625 	-0.984375 	0.5 	39.302 	-0.16675 	2.95118e-20
0.78125 	-0.984375 	0.5 	39.3038 	-0.172581 	-1.48439e-20
0.796875 	-0.984375 	0.5 	39.3055 	-0.178518 	-5.93734e-20
0.8125 	-0.984375 	0.5 	39.3072 	-0.18552 	-2.49893e-19
0.828125 	-0.984375 	0.5 	39.309 	-0.191031 	-4.60584e-20
0.84375 	-0.984375 	0.5 	39.3108 	-0.197291 	1.00012e-20
0.859375 	-0.984375 	0.5 	39.3129 	-0.203697 	4.77283e-20
0.875 	-0.984375 	0.5 	39.3153 	-0.209581 	-4.59231e-20
0.890625 	-0.984375 	0.5 	39.3186 	-0.215702 	2.23589e-20
0.90625 	-0.984375 	0.5 	39.3219 	-0.221891 	-4.09771e-21
0.921875 	-0.984375 	0.5 	39.3246 	-0.228269 	-6.55943e-20
0.9375 	-0.984375 	0.5 	39.3276 	-0.234711 	-4.70774e-20
0.953125 	-0.984375 	0.5 	39.3315 	-0.240771 	1.53915e-19
0.96875 	-0.984375 	0.5 	39.3335 	-0.246779 	-5.77334e-20
0.984375 	-0.984375 	0.5 	39.3353 	-0.254376 	7.51235e-22
1 	-0.984375 	0.5 	39.3394 	-0.25943 	-5.96948e-21
1.01562 	-0.984375 	0.5 	39.3433 	-0.264484 	2.20106e-20
1.03125 	-0.984375 	0.5 	39.3479 	-0.270551 	7.86749e-21
1.04688 	-0.984375 	0.5 	39.3523 	-0.276986 	2.34021e-20
1.0625 	-0.984375 	0.5 	39.3557 	-0.283166 	-6.032e-21
1.07812 	-0.984375 	0.5 	39.3593 	-0.288986 	-1.42667e-20
1.09375 	-0.984375 	0.5 	39.3642 	-0.295295 	3.11441e-20
1.10938 	-0.984375 	0.5 	39.3687 	-0.300361 	2.1011e-19
1.125 	-0.984375 	0.5 	39.3733 	-0.305764 	3.42111e-19
1.14062 	-0.984375 	0.5 	39.3777 	-0.312778 	-4.16364e-20
1.15625 	-0.984375 	0.5 	39.3826 	-0.316934 	-2.04404e-20
1.17188 	-0.984375 	0.5 	39.3878 	-0.32188 	-3.07291e-19
1.1875 	-0.984375 	0.5 	39.3919 	-0.3265 	-2.44004e-19
1.20312 	-0.984375 	0.5 	39.3976 	-0.33141 	-1.04971e-19
1.21875 	-0.984375 	0.5 	39.4024 	-0.336947 	3.07022e-19
1.23438 	-0.984375 	0.5 	39.4082 	-0.341766 	6.65663e-20
1.25 	-0.984375 	0.5 	39.4133 	-0.346664 	1.02876e-20
1.26562 	-0.984375 	0.5 	39.4203 	-0.349657 	7.07876e-20
1.28125 	-0.984375 	0.5 	39.4262 	-0.353916 	-3.10252e-20
1.29688 	-0.984375 	0.5 	39.4311 	-0.358287 	-7.12956e-20
1.3125 	-0.984375 	0.5 	39.4368 	-0.363222 	8.12378e-21
1.32812 	-0.984375 	0.5 	39.4425 	-0.367683 	3.37452e-20
1.34375 	-0.984375 	0.5 	39.4494 	-0.370822 	-2.25626e-21
1.35938 	-0.984375 	0.5 	39.4549 	-0.374713 	-6.41637e-20
1.375 	-0.984375 	0.5 	39.4604 	-0.378632 	-1.60403e-19
1.39062 	-0.984375 	0.5 	39.4664 	-0.381703 	-1.01907e-19
1.40625 	-0.984375 	0.5 	39.472 	-0.384134 	-3.33007e-19
1.42188 	-0.984375 	0.5 	39.4781 	-0.386705 	-5.92145e-19
1.4375 	-0.984375 	0.5 	39.4837 	-0.389477 	-2.95573e-19
1.45312 	-0.984375 	0.5 	39.49 	-0.394265 	-4.98577e-19
1.46875 	-0.984375 	0.5 	39.4969 	-0.396429 	-3.29637e-19
1.48438 	-0.984375 	0.5 	39.5038 	-0.398592 	-1.60698e-19
-0.5 	-0.96875 	0.5 	39.3661 	0.308062 	1.89595e-19
-0.484375 	-0.96875 	0.5 	39.3602 	0.303333 	-8.64303e-20
-0.46875 	-0.96875 	0.5 	39.355 	0.298073 	-2.06543e-19
-0.453125 	-0.96875 	0.5 	39.3503 	0.292447 	-1.58413e-19
-0.4375 	-0.96875 	0.5 	39.3457 	0.286841 	-1.19734e-19
-0.421875 	-0.96875 	0.5 	39.3409 	0.281334 	-1.29555e-19
-0.40625 	-0.96875 	0.5 	39.3364 	0.275847 	-5.00912e-20
-0.390625 	-0.96875 	0.5 	39.3321 	0.269729 	1.45441e-19
-0.375 	-0.96875 	0.5 	39.3278 	0.263544 	3.21856e-19
-0.359375 	-0.96875 	0.5 	39.3245 	0.256609 	1.13089e-19
-0.34375 	-0.96875 	0.5 	39.3195 	0.251107 	5.41219e-20
-0.328125 	-0.96875 	0.5 	39.315 	0.244908 	-1.91322e-22
-0.3125 	-0.96875 	0.5 	39.3099 	0.238784 	-4.79578e-21
-0.296875 	-0.96875 	0.5 	39.3063 	0.233633 	3.04254e-19
-0.28125 	-0.96875 	0.5 	39.3039 	0.226843 	6.77804e-20
-0.265625 	-0.96875 	0.5 	39.3009 	0.220153 	3.63125e-19
-0.25 	-0.96875 	0.5 	39.2981 	0.214168 	1.89112e-19
-0.234375 	-0.96875 	0.5 	39.2958 	0.207768 	8.78624e-20
-0.21875 	-0.96875 	0.5 	39.2938 	0.198848 	-3.50579e-20
-0.203125 	-0.96875 	0.5 	39.2915 	0.191768 	-4.53875e-20
-0.1875 	-0.96875 	0.5 	39.289 	0.185527 	-1.91482e-20
-0.171875 	-0.96875 	0.5 	39.2866 	0.179116 	2.42963e-19
-0.15625 	-0.96875 	0.5 	39.2843 	0.172497 	4.13266e-19
-0.140625 	-0.96875 	0.5 	39.282 	0.165879 	5.8357e-19
-0.125 	-0.96875 	0.5 	39.2793 	0.159315 	1.15733e-19
-0.109375 	-0.96875 	0.5 	39.2777 	0.152321 	2.02509e-19
-0.09375 	-0.96875 	0.5 	39.2759 	0.146259 	7.68707e-19
-0.078125 	-0.96875 	0.5 	39.2747 	0.139355 	5.39987e-19
-0.0625 	-0.96875 	0.5 	39.2736 	0.132548 	2.19619e-19
-0.046875 	-0.96875 	0.5 	39.2733 	0.125764 	7.715e-20
-0.03125 	-0.96875 	0.5 	39.2729 	0.119073 	1.87734e-20
-0.015625 	-0.96875 	0.5 	39.2721 	0.112818 	-2.3017e-19
0 	-0.96875 	0.5 	39.2711 	0.106593 	-1.28642e-19
0.015625 	-0.96875 	0.5 	39.2702 	0.100338 	1.32433e-19
0.03125 	-0.96875 	0.5 	39.2691 	0.0935947 	2.12867e-19
0.046875 	-0.96875 	0.5 	39.269 	0.0866436 	6.50804e-20
0.0625 	-0.96875 	0.5 	39.2685 	0.080297 	-1.06319e-20
0.078125 	-0.96875 	0.5 	39.2685 	0.0747396 	1.95656e-19
0.09375 	-0.96875 	0.5 	39.269 	0.0687744 	1.23179e-19
0.109375 	-0.96875 	0.5 	39.2687 	0.0625721 	-5.84302e-19
0.125 	-0.96875 	0.5 	39.2692 	0.0567001 	-1.13002e-19
0.140625 	-0.96875 	0.5 	39.269 	0.0509405 	1.28731e-19
0.15625 	-0.96875 	0.5 	39.2692 	0.0437331 	2.53589e-21
0.171875 	-0.96875 	0.5 	39.2695 	0.0389659 	1.91602e-20
0.1875 	-0.96875 	0.5 	39.27 	0.03311 	-2.08681e-20
0.203125 	-0.96875 	0.5 	39.2711 	0.0275373 	-2.18069e-20
0.21875 	-0.96875 	0.5 	39.2707 	0.0229549 	-3.91578e-21
0.234375 	-0.96875 	0.5 	39.2718 	0.0168138 	7.31044e-21
0.25 	-0.96875 	0.5 	39.2719 	0.0116051 	7.76823e-21
0.265625 	-0.96875 	0.5 	39.2728 	0.00650565 	1.699e-20
0.28125 	-0.96875 	0.5 	39.2736 	0.000940265 	3.0471e-19
0.296875 	-0.96875 	0.5 	39.2744 	-0.00485743 	3.46136e-19
0.3125 	-0.96875 	0.5 	39.2744 	-0.0100038 	1.95709e-20
0.328125 	-0.96875 	0.5 	39.2746 	-0.0148078 	5.99683e-20
0.34375 	-0.96875 	0.5 	39.2747 	-0.0196705 	2.98413e-20
0.359375 	-0.96875 	0.5 	39.2751 	-0.0246359 	2.55324e-20
0.375 	-0.96875 	0.5 	39.2758 	-0.0300197 	-1.55522e-20
0.390625 	-0.96875 	0.5 	39.2763 	-0.0353962 	-9.90898e-20
0.40625 	-0.96875 	0.5 	39.2766 	-0.0400137 	-3.82069e-19
0.421875 	-0.96875 	0.5 	39.2771 	-0.0454206 	-2.20684e-19
0.4375 	-0.96875 	0.5 	39.2774 	-0.0506159 	-9.07434e-20
0.453125 	-0.96875 	0.5 	39.2775 	-0.0566694 	-5.24498e-21
0.46875 	-0.96875 	0.5 	39.2786 	-0.0617796 	-5.14242e-20
0.484375 	-0.96875 	0.5 	39.2795 	-0.0668756 	-7.74545e-20
0.5 	-0.96875 	0.5 	39.2792 	-0.0722409 	-2.91182e-19
0.515625 	-0.96875 	0.5 	39.2793 	-0.0771749 	-6.79212e-20
0.53125 	-0.96875 	0.5 	39.28 	-0.083131 	1.92399e-20
0.546875 	-0.96875 	0.5 	39.2808 	-0.0878228 	4.50553e-20
0.5625 	-0.96875 	0.5 	39.2814 	-0.0933104 	2.1366e-20
0.578125 	-0.96875 	0.5 	39.2829 	-0.0988074 	-1.14729e-20
0.59375 	-0.96875 	0.5 	39.2838 	-0.104286 	-3.75282e-20
0.609375 	-0.96875 	0.5 	39.2841 	-0.109597 	-2.03302e-20
0.625 	-0.96875 	0.5 	39.284 	-0.115494 	-8.07937e-20
0.640625 	-0.96875 	0.5 	39.2848 	-0.121221 	-8.96371e-20
0.65625 	-0.96875 	0.5 	39.2863 	-0.126944 	-1.23133e-19
0.671875 	-0.96875 	0.5 	39.2874 	-0.132475 	-2.98717e-19
0.6875 	-0.96875 	0.5 	39.2877 	-0.139115 	1.90551e-19
0.703125 	-0.96875 	0.5 	39.2886 	-0.144583 	2.2427e-20
0.71875 	-0.96875 	0.5 	39.2898 	-0.150711 	-2.70919e-21
0.734375 	-0.96875 	0.5 	39.2907 	-0.15614 	-9.17997e-20
0.75 	-0.96875 	0.5 	39.2926 	-0.162235 	-9.7879e-20
0.765625 	-0.96875 	0.5 	39.2943 	-0.168164 	1.80478e-19
0.78125 	-0.96875 	0.5 	39.2962 	-0.174323 	-3.95922e-21
0.796875 	-0.96875 	0.5 	39.298 	-0.180751 	-8.91675e-20
0.8125 	-0.96875 	0.5 	39.2998 	-0.187013 	-7.09589e-20
0.828125 	-0.96875 	0.5 	39.3011 	-0.193487 	4.63729e-21
0.84375 	-0.96875 	0.5 	39.3033 	-0.19906 	1.32798e-20
0.859375 	-0.96875 	0.5 	39.3053 	-0.205467 	7.25593e-20
0.875 	-0.96875 	0.5 	39.3076 	-0.212443 	1.27039e-19
0.890625 	-0.96875 	0.5 	39.3115 	-0.218731 	6.81278e-20
0.90625 	-0.96875 	0.5 	39.3146 	-0.224917 	1.28741e-20
0.921875 	-0.96875 	0.5 	39.3166 	-0.230601 	-3.74516e-21
0.9375 	-0.96875 	0.5 	39.3192 	-0.240568 	-2.24086e-20
0.953125 	-0.96875 	0.5 	39.3232 	-0.244597 	-4.03833e-20
0.96875 	-0.96875 	0.5 	39.3262 	-0.250612 	-1.84881e-20
0.984375 	-0.96875 	0.5 	39.3296 	-0.255998 	-9.10836e-20
1 	-0.96875 	0.5 	39.3324 	-0.261777 	-1.82731e-19
1.01562 	-0.96875 	0.5 	39.3366 	-0.26818 	6.83804e-22
1.03125 	-0.96875 	0.5 	39.3405 	-0.274921 	-5.97238e-21
1.04688 	-0.96875 	0.5 	39.3445 	-0.281135 	4.35298e-21
1.0625 	-0.96875 	0.5 	39.348 	-0.287339 	-3.35887e-20
1.07812 	-0.96875 	0.5 	39.3518 	-0.29379 	-8.41389e-20
1.09375 	-0.96875 	0.5 	39.3571 	-0.299677 	-3.44215e-20
1.10938 	-0.96875 	0.5 	39.3624 	-0.305681 	1.29265e-20
1.125 	-0.96875 	0.5 	39.3666 	-0.311212 	1.16865e-21
1.14062 	-0.96875 	0.5 	39.3719 	-0.318911 	-2.23986e-19
1.15625 	-0.96875 	0.5 	39.3769 	-0.323745 	-2.00456e-19
1.17188 	-0.96875 	0.5 	39.3818 	-0.326944 	-9.60669e-20
1.1875 	-0.96875 	0.5 	39.3866 	-0.331705 	-1.77177e-19
1.20312 	-0.96875 	0.5 	39.3915 	-0.337147 	2.12384e-19
1.21875 	-0.96875 	0.5 	39.3966 	-0.34251 	4.47083e-19
1.23438 	-0.96875 	0.5 	39.4025 	-0.347242 	2.52497e-19
1.25 	-0.96875 	0.5 	39.4083 	-0.351787 	1.32955e-19
1.26562 	-0.96875 	0.5 	39.4139 	-0.355245 	2.92575e-19
1.28125 	-0.96875 	0.5 	39.4207 	-0.359678 	1.60812e-19
1.29688 	-0.96875 	0.5 	39.4264 	-0.364294 	1.14401e-19
1.3125 	-0.96875 	0.5 	39.4323 	-0.368654 	-6.20731e-20
1.32812 	-0.96875 	0.5 	39.4378 	-0.373349 	1.91891e-20
1.34375 	-0.96875 	0.5 	39.4442 	-0.376936 	1.77404e-20
1.35938 	-0.96875 	0.5 	39.4498 	-0.380826 	-8.50651e-20
1.375 	-0.96875 	0.5 	39.4561 	-0.384648 	-1.63517e-19
1.39062 	-0.96875 	0.5 	39.4624 	-0.3884 	3.85249e-20
1.40625 	-0.96875 	0.5 	39.4685 	-0.390883 	1.41324e-19
1.42188 	-0.96875 	0.5 	39.4738 	-0.39321 	-6.92563e-20
1.4375 	-0.96875 	0.5 	39.4789 	-0.395516 	-3.23987e-19
1.45312 	-0.96875 	0.5 	39.4862 	-0.397972 	-4.68608e-19
1.46875 	-0.96875 	0.5 	39.4937 	-0.400621 	-5.32554e-19
1.48438 	-0.96875 	0.5 	39.5005 	-0.404387 	-3.54587e-20
-0.5 	-0.953125 	0.5 	39.3594 	0.313419 	-1.62853e-19
-0.484375 	-0.953125 	0.5 	39.3533 	0.308825 	-2.54272e-20
-0.46875 	-0.953125 	0.5 	39.3479 	0.302755 	-2.87284e-20
-0.453125 	-0.953125 	0.5 	39.3431 	0.298037 	-6.611e-19
-0.4375 	-0.953125 	0.5 	39.3384 	0.292537 	-6.93433e-19
-0.421875 	-0.953125 	0.5 	39.3338 	0.286185 	-1.78496e-19
-0.40625 	-0.953125 	0.5 	39.329 	0.280476 	-3.80684e-20
-0.390625 	-0.953125 	0.5 	39.3255 	0.273783 	1.97689e-19
-0.375 	-0.953125 	0.5 	39.3215 	0.265995 	8.84193e-20
-0.359375 	-0.953125 	0.5 	39.3174 	0.259695 	1.44987e-19
-0.34375 	-0.953125 	0.5 	39.3129 	0.253895 	8.36058e-20
-0.328125 	-0.953125 	0.5 	39.3086 	0.248345 	1.35935e-20
-0.3125 	-0.953125 	0.5 	39.3032 	0.242026 	-2.40184e-20
-0.296875 	-0.953125 	0.5 	39.2987 	0.236311 	1.43438e-19
-0.28125 	-0.953125 	0.5 	39.296 	0.229655 	1.23765e-19
-0.265625 	-0.953125 	0.5 	39.2931 	0.223307 	2.23866e-19
-0.25 	-0.953125 	0.5 	39.2903 	0.217323 	4.68042e-20
-0.234375 	-0.953125 	0.5 	39.2868 	0.210612 	-6.05205e-20
-0.21875 	-0.953125 	0.5 	39.2825 	0.202071 	6.42269e-19
-0.203125 	-0.953125 	0.5 	39.2803 	0.194493 	6.03911e-19
-0.1875 	-0.953125 	0.5 	39.2791 	0.188545 	-4.3004e-19
-0.171875 	-0.953125 	0.5 	39.2775 	0.180732 	-1.55354e-19
-0.15625 	-0.953125 	0.5 	39.2753 	0.174077 	-1.00919e-19
-0.140625 	-0.953125 	0.5 	39.2733 	0.167561 	-2.53317e-21
-0.125 	-0.953125 	0.5 	39.2713 	0.161044 	9.58528e-20
-0.109375 	-0.953125 	0.5 	39.2696 	0.154465 	1.79599e-19
-0.09375 	-0.953125 	0.5 	39.268 	0.147829 	2.40614e-19
-0.078125 	-0.953125 	0.5 	39.2664 	0.141194 	3.01628e-19
-0.0625 	-0.953125 	0.5 	39.2655 	0.133533 	1.36501e-19
-0.046875 	-0.953125 	0.5 	39.2654 	0.127028 	1.25697e-19
-0.03125 	-0.953125 	0.5 	39.2654 	0.120402 	4.20014e-20
-0.015625 	-0.953125 	0.5 	39.2647 	0.113987 	-1.04146e-19
0 	-0.953125 	0.5 	39.2636 	0.107345 	1.29076e-19
0.015625 	-0.953125 	0.5 	39.262 	0.100181 	2.12045e-19
0.03125 	-0.953125 	0.5 	39.2615 	0.093796 	6.1233e-19
0.046875 	-0.953125 	0.5 	39.2604 	0.0871118 	2.45856e-19
0.0625 	-0.953125 	0.5 	39.2597 	0.0804678 	-6.54204e-21
0.078125 	-0.953125 	0.5 	39.2608 	0.0746125 	2.9549e-19
0.09375 	-0.953125 	0.5 	39.2614 	0.0686453 	2.93111e-19
0.109375 	-0.953125 	0.5 	39.2614 	0.0626852 	4.73963e-20
0.125 	-0.953125 	0.5 	39.2614 	0.0567986 	1.05891e-19
0.140625 	-0.953125 	0.5 	39.2618 	0.0505316 	5.08895e-20
0.15625 	-0.953125 	0.5 	39.262 	0.0443143 	6.63297e-20
0.171875 	-0.953125 	0.5 	39.2628 	0.0386995 	3.65068e-20
0.1875 	-0.953125 	0.5 	39.2632 	0.0325087 	2.22888e-21
0.203125 	-0.953125 	0.5 	39.2649 	0.0273673 	1.92678e-21
0.21875 	-0.953125 	0.5 	39.265 	0.0217619 	7.61285e-21
0.234375 	-0.953125 	0.5 	39.2656 	0.0162642 	2.1639e-20
0.25 	-0.953125 	0.5 	39.2649 	0.0115992 	1.81181e-20
0.265625 	-0.953125 	0.5 	39.2661 	0.00631928 	-2.13533e-20
0.28125 	-0.953125 	0.5 	39.2665 	0.000419094 	5.49852e-20
0.296875 	-0.953125 	0.5 	39.2671 	-0.00542151 	7.09213e-20
0.3125 	-0.953125 	0.5 	39.2683 	-0.0105296 	1.63525e-19
0.328125 	-0.953125 	0.5 	39.2686 	-0.0153744 	4.47215e-20
0.34375 	-0.953125 	0.5 	39.2687 	-0.0202425 	1.8392e-20
0.359375 	-0.953125 	0.5 	39.269 	-0.0252179 	2.24806e-20
0.375 	-0.953125 	0.5 	39.2696 	-0.0306442 	-4.76031e-21
0.390625 	-0.953125 	0.5 	39.27 	-0.0357945 	-2.42354e-20
0.40625 	-0.953125 	0.5 	39.2708 	-0.0404831 	-1.54504e-19
0.421875 	-0.953125 	0.5 	39.2718 	-0.0453524 	-2.55864e-19
0.4375 	-0.953125 	0.5 	39.2722 	-0.0508026 	-5.0034e-20
0.453125 	-0.953125 	0.5 	39.2724 	-0.057045 	9.18653e-20
0.46875 	-0.953125 	0.5 	39.2727 	-0.0622463 	1.76447e-20
0.484375 	-0.953125 	0.5 	39.2729 	-0.067334 	1.39069e-20
0.5 	-0.953125 	0.5 	39.2733 	-0.0730723 	2.17634e-19
0.515625 	-0.953125 	0.5 	39.2733 	-0.0779675 	-1.51814e-19
0.53125 	-0.953125 	0.5 	39.274 	-0.0831271 	3.5805e-20
0.546875 	-0.953125 	0.5 	39.2744 	-0.0882065 	1.26524e-20
0.5625 	-0.953125 	0.5 	39.2751 	-0.0937656 	1.4661e-20
0.578125 	-0.953125 	0.5 	39.2767 	-0.0992678 	-1.75883e-20
0.59375 	-0.953125 	0.5 	39.2771 	-0.104941 	1.5226e-20
0.609375 	-0.953125 	0.5 	39.2777 	-0.110166 	-4.5459e-20
0.625 	-0.953125 	0.5 	39.2782 	-0.116013 	-5.76953e-20
0.640625 	-0.953125 	0.5 	39.2788 	-0.121903 	-6.63002e-20
0.65625 	-0.953125 	0.5 	39.2794 	-0.127959 	-4.98721e-20
0.671875 	-0.953125 	0.5 	39.2801 	-0.134138 	-7.47988e-21
0.6875 	-0.953125 	0.5 	39.2808 	-0.140318 	3.49123e-20
0.703125 	-0.953125 	0.5 	39.2817 	-0.146251 	3.4187e-20
0.71875 	-0.953125 	0.5 	39.2829 	-0.152113 	1.49611e-20
0.734375 	-0.953125 	0.5 	39.2839 	-0.157751 	6.94247e-22
0.75 	-0.953125 	0.5 	39.2855 	-0.16351 	7.47132e-20
0.765625 	-0.953125 	0.5 	39.2867 	-0.169664 	2.55872e-19
0.78125 	-0.953125 	0.5 	39.2887 	-0.177088 	-6.09885e-20
0.796875 	-0.953125 	0.5 	39.2907 	-0.184296 	-2.66811e-20
0.8125 	-0.953125 	0.5 	39.2925 	-0.190207 	-2.18723e-21
0.828125 	-0.953125 	0.5 	39.2939 	-0.195698 	3.12448e-20
0.84375 	-0.953125 	0.5 	39.296 	-0.201456 	5.21702e-20
0.859375 	-0.953125 	0.5 	39.2981 	-0.208486 	1.65453e-19
0.875 	-0.953125 	0.5 	39.2998 	-0.215103 	1.56689e-19
0.890625 	-0.953125 	0.5 	39.303 	-0.22169 	3.89769e-19
0.90625 	-0.953125 	0.5 	39.3061 	-0.227796 	1.71315e-19
0.921875 	-0.953125 	0.5 	39.3092 	-0.234334 	4.73528e-20
0.9375 	-0.953125 	0.5 	39.3123 	-0.240712 	9.90657e-20
0.953125 	-0.953125 	0.5 	39.3152 	-0.247395 	3.93801e-20
0.96875 	-0.953125 	0.5 	39.319 	-0.252987 	-1.85574e-20
0.984375 	-0.953125 	0.5 	39.3214 	-0.260038 	-9.87288e-20
1 	-0.953125 	0.5 	39.3252 	-0.265713 	-4.35826e-20
1.01562 	-0.953125 	0.5 	39.3301 	-0.272337 	3.08753e-20
1.03125 	-0.953125 	0.5 	39.3339 	-0.278319 	2.37227e-20
1.04688 	-0.953125 	0.5 	39.337 	-0.2862 	-6.08671e-21
1.0625 	-0.953125 	0.5 	39.3407 	-0.292287 	-1.18407e-20
1.07812 	-0.953125 	0.5 	39.3453 	-0.299099 	-1.62414e-19
1.09375 	-0.953125 	0.5 	39.3504 	-0.305033 	-1.57933e-19
1.10938 	-0.953125 	0.5 	39.3556 	-0.309835 	-6.95467e-21
1.125 	-0.953125 	0.5 	39.3605 	-0.315472 	-3.38483e-21
1.14062 	-0.953125 	0.5 	39.3655 	-0.320739 	-2.3991e-20
1.15625 	-0.953125 	0.5 	39.3705 	-0.326117 	-4.88551e-20
1.17188 	-0.953125 	0.5 	39.3756 	-0.331494 	-7.37193e-20
1.1875 	-0.953125 	0.5 	39.3809 	-0.336908 	-1.42088e-20
1.20312 	-0.953125 	0.5 	39.3862 	-0.341899 	1.08606e-19
1.21875 	-0.953125 	0.5 	39.3916 	-0.347013 	1.94153e-19
1.23438 	-0.953125 	0.5 	39.397 	-0.352128 	2.797e-19
1.25 	-0.953125 	0.5 	39.4027 	-0.357702 	1.94643e-19
1.26562 	-0.953125 	0.5 	39.409 	-0.362671 	9.88043e-20
1.28125 	-0.953125 	0.5 	39.4152 	-0.367092 	4.86145e-20
1.29688 	-0.953125 	0.5 	39.4208 	-0.370402 	4.07042e-19
1.3125 	-0.953125 	0.5 	39.4269 	-0.374704 	2.57339e-19
1.32812 	-0.953125 	0.5 	39.4331 	-0.379007 	1.07637e-19
1.34375 	-0.953125 	0.5 	39.4392 	-0.383089 	2.24611e-20
1.35938 	-0.953125 	0.5 	39.4455 	-0.386952 	-3.65472e-20
1.375 	-0.953125 	0.5 	39.4518 	-0.390815 	-9.55555e-20
1.39062 	-0.953125 	0.5 	39.458 	-0.395034 	5.29236e-20
1.40625 	-0.953125 	0.5 	39.4638 	-0.397468 	5.70056e-20
1.42188 	-0.953125 	0.5 	39.4699 	-0.40035 	-1.28851e-20
1.4375 	-0.953125 	0.5 	39.4768 	-0.403315 	4.51544e-20
1.45312 	-0.953125 	0.5 	39.4833 	-0.404297 	-4.9286e-19
1.46875 	-0.953125 	0.5 	39.4906 	-0.407274 	-3.92385e-19
1.48438 	-0.953125 	0.5 	39.4974 	-0.41049 	2.8988e-19
-0.5 	-0.9375 	0.5 	39.3513 	0.318564 	-3.37028e-19
-0.484375 	-0.9375 	0.5 	39.3467 	0.314279 	1.78542e-19
-0.46875 	-0.9375 	0.5 	39.3413 	0.308611 	4.60786e-19
-0.453125 	-0.9375 	0.5 	39.336 	0.302248 	-2.77846e-19
-0.4375 	-0.9375 	0.5 	39.3313 	0.296859 	-3.81577e-19
-0.421875 	-0.9375 	0.5 	39.3267 	0.29082 	-1.61659e-21
-0.40625 	-0.9375 	0.5 	39.3216 	0.285151 	4.51956e-20
-0.390625 	-0.9375 	0.5 	39.3177 	0.279728 	3.93663e-19
-0.375 	-0.9375 	0.5 	39.3137 	0.271587 	2.18683e-19
-0.359375 	-0.9375 	0.5 	39.3098 	0.264625 	1.06045e-19
-0.34375 	-0.9375 	0.5 	39.3048 	0.25629 	8.10952e-20
-0.328125 	-0.9375 	0.5 	39.3006 	0.250697 	5.96514e-20
-0.3125 	-0.9375 	0.5 	39.2961 	0.244991 	9.68248e-21
-0.296875 	-0.9375 	0.5 	39.2911 	0.238989 	-1.73776e-20
-0.28125 	-0.9375 	0.5 	39.2882 	0.232775 	1.004e-20
-0.265625 	-0.9375 	0.5 	39.2842 	0.226827 	-4.4401e-19
-0.25 	-0.9375 	0.5 	39.2801 	0.220884 	-9.29753e-19
-0.234375 	-0.9375 	0.5 	39.2778 	0.212471 	-1.97852e-19
-0.21875 	-0.9375 	0.5 	39.2732 	0.203682 	7.04153e-19
-0.203125 	-0.9375 	0.5 	39.2728 	0.19749 	-2.55755e-19
-0.1875 	-0.9375 	0.5 	39.2696 	0.190985 	-7.33638e-19
-0.171875 	-0.9375 	0.5 	39.2687 	0.182762 	-2.46689e-19
-0.15625 	-0.9375 	0.5 	39.2663 	0.175942 	-2.44806e-19
-0.140625 	-0.9375 	0.5 	39.2646 	0.169593 	-6.8988e-20
-0.125 	-0.9375 	0.5 	39.2622 	0.162628 	6.62052e-20
-0.109375 	-0.9375 	0.5 	39.2618 	0.155565 	-1.61797e-19
-0.09375 	-0.9375 	0.5 	39.2606 	0.148866 	1.08879e-19
-0.078125 	-0.9375 	0.5 	39.2587 	0.142411 	2.16421e-19
-0.0625 	-0.9375 	0.5 	39.2577 	0.134558 	1.83521e-20
-0.046875 	-0.9375 	0.5 	39.2565 	0.127416 	-5.17073e-20
-0.03125 	-0.9375 	0.5 	39.2576 	0.12155 	-2.96877e-21