-0.5 	-1 	0.5 	143.564
-0.484375 	-1 	0.5 	143.771
-0.46875 	-1 	0.5 	143.967
-0.453125 	-1 	0.5 	144.159
-0.4375 	-1 	0.5 	144.343
-0.421875 	-1 	0.5 	144.499
-0.40625 	-1 	0.5 	144.651
-0.390625 	-1 	0.5 	144.805
-0.375 	-1 	0.5 	144.937
-0.359375 	-1 	0.5 	145.098
-0.34375 	-1 	0.5 	145.243
-0.328125 	-1 	0.5 	145.377
-0.3125 	-1 	0.5 	145.486
-0.296875 	-1 	0.5 	145.607
-0.28125 	-1 	0.5 	145.74
-0.265625 	-1 	0.5 	145.86
-0.25 	-1 	0.5 	145.988
-0.234375 	-1 	0.5 	146.111
-0.21875 	-1 	0.5 	146.202
-0.203125 	-1 	0.5 	146.301
-0.1875 	-1 	0.5 	146.438
-0.171875 	-1 	0.5 	146.522
-0.15625 	-1 	0.5 	146.586
-0.140625 	-1 	0.5 	146.637
-0.125 	-1 	0.5 	146.698
-0.109375 	-1 	0.5 	146.749
-0.09375 	-1 	0.5 	146.799
-0.078125 	-1 	0.5 	146.864
-0.0625 	-1 	0.5 	146.927
-0.046875 	-1 	0.5 	146.98
-0.03125 	-1 	0.5 	147.012
-0.015625 	-1 	0.5 	147.049
0 	-1 	0.5 	147.083
0.015625 	-1 	0.5 	147.125
0.03125 	-1 	0.5 	147.134
0.046875 	-1 	0.5 	147.162
0.0625 	-1 	0.5 	147.203
0.078125 	-1 	0.5 	147.249
0.09375 	-1 	0.5 	147.296
0.109375 	-1 	0.5 	147.366
0.125 	-1 	0.5 	147.399
0.140625 	-1 	0.5 	147.44
0.15625 	-1 	0.5 	147.453
0.171875 	-1 	0.5 	147.484
0.1875 	-1 	0.5 	147.526
0.203125 	-1 	0.5 	147.556
0.21875 	-1 	0.5 	147.572
0.234375 	-1 	0.5 	147.63
0.25 	-1 	0.5 	147.733
0.265625 	-1 	0.5 	147.792
0.28125 	-1 	0.5 	147.855
0.296875 	-1 	0.5 	147.917
0.3125 	-1 	0.5 	147.977
0.328125 	-1 	0.5 	148.034
0.34375 	-1 	0.5 	148.082
0.359375 	-1 	0.5 	148.165
0.375 	-1 	0.5 	148.254
0.390625 	-1 	0.5 	148.302
0.40625 	-1 	0.5 	148.396
0.421875 	-1 	0.5 	148.484
0.4375 	-1 	0.5 	148.608
0.453125 	-1 	0.5 	148.665
0.46875 	-1 	0.5 	148.745
0.484375 	-1 	0.5 	148.853
0.5 	-1 	0.5 	148.928
0.515625 	-1 	0.5 	148.983
0.53125 	-1 	0.5 	149.074
0.546875 	-1 	0.5 	149.148
0.5625 	-1 	0.5 	149.242
0.578125 	-1 	0.5 	149.347
0.59375 	-1 	0.5 	149.45
0.609375 	-1 	0.5 	149.614
0.625 	-1 	0.5 	149.607
0.640625 	-1 	0.5 	149.632
0.65625 	-1 	0.5 	149.653
0.671875 	-1 	0.5 	149.773
0.6875 	-1 	0.5 	149.864
0.703125 	-1 	0.5 	149.943
0.71875 	-1 	0.5 	149.955
0.734375 	-1 	0.5 	150.017
0.75 	-1 	0.5 	150.031
0.765625 	-1 	0.5 	150.048
0.78125 	-1 	0.5 	150.059
0.796875 	-1 	0.5 	150.077
0.8125 	-1 	0.5 	150.094
0.828125 	-1 	0.5 	150.087
0.84375 	-1 	0.5 	150.078
0.859375 	-1 	0.5 	150.044
0.875 	-1 	0.5 	150.001
0.890625 	-1 	0.5 	149.954
0.90625 	-1 	0.5 	149.974
0.921875 	-1 	0.5 	149.884
0.9375 	-1 	0.5 	149.841
0.953125 	-1 	0.5 	149.724
0.96875 	-1 	0.5 	149.612
0.984375 	-1 	0.5 	149.553
1 	-1 	0.5 	149.452
1.01562 	-1 	0.5 	149.371
1.03125 	-1 	0.5 	149.282
1.04688 	-1 	0.5 	149.115
1.0625 	-1 	0.5 	148.976
1.07812 	-1 	0.5 	148.788
1.09375 	-1 	0.5 	148.624
1.10938 	-1 	0.5 	148.419
1.125 	-1 	0.5 	148.277
1.14062 	-1 	0.5 	148.028
1.15625 	-1 	0.5 	147.934
1.17188 	-1 	0.5 	147.791
1.1875 	-1 	0.5 	147.568
1.20312 	-1 	0.5 	147.337
1.21875 	-1 	0.5 	147.09
1.23438 	-1 	0.5 	146.887
1.25 	-1 	0.5 	146.672
1.26562 	-1 	0.5 	146.431
1.28125 	-1 	0.5 	146.157
1.29688 	-1 	0.5 	145.887
1.3125 	-1 	0.5 	145.643
1.32812 	-1 	0.5 	145.452
1.34375 	-1 	0.5 	145.235
1.35938 	-1 	0.5 	144.983
1.375 	-1 	0.5 	144.608
1.39062 	-1 	0.5 	144.307
1.40625 	-1 	0.5 	144.095
1.42188 	-1 	0.5 	143.839
1.4375 	-1 	0.5 	143.487
1.45312 	-1 	0.5 	143.172
1.46875 	-1 	0.5 	142.838
1.48438 	-1 	0.5 	142.675
-0.5 	-0.984375 	0.5 	143.754
-0.484375 	-0.984375 	0.5 	143.958
-0.46875 	-0.984375 	0.5 	144.158
-0.453125 	-0.984375 	0.5 	144.346
-0.4375 	-0.984375 	0.5 	144.524
-0.421875 	-0.984375 	0.5 	144.679
-0.40625 	-0.984375 	0.5 	144.835
-0.390625 	-0.984375 	0.5 	145.012
-0.375 	-0.984375 	0.5 	145.166
-0.359375 	-0.984375 	0.5 	145.326
-0.34375 	-0.984375 	0.5 	145.457
-0.328125 	-0.984375 	0.5 	145.607
-0.3125 	-0.984375 	0.5 	145.723
-0.296875 	-0.984375 	0.5 	145.832
-0.28125 	-0.984375 	0.5 	145.96
-0.265625 	-0.984375 	0.5 	146.086
-0.25 	-0.984375 	0.5 	146.221
-0.234375 	-0.984375 	0.5 	146.357
-0.21875 	-0.984375 	0.5 	146.417
-0.203125 	-0.984375 	0.5 	146.505
-0.1875 	-0.984375 	0.5 	146.642
-0.171875 	-0.984375 	0.5 	146.711
-0.15625 	-0.984375 	0.5 	146.837
-0.140625 	-0.984375 	0.5 	146.866
-0.125 	-0.984375 	0.5 	146.926
-0.109375 	-0.984375 	0.5 	146.963
-0.09375 	-0.984375 	0.5 	147.009
-0.078125 	-0.984375 	0.5 	147.064
-0.0625 	-0.984375 	0.5 	147.135
-0.046875 	-0.984375 	0.5 	147.194
-0.03125 	-0.984375 	0.5 	147.24
-0.015625 	-0.984375 	0.5 	147.244
0 	-0.984375 	0.5 	147.265
0.015625 	-0.984375 	0.5 	147.308
0.03125 	-0.984375 	0.5 	147.361
0.046875 	-0.984375 	0.5 	147.371
0.0625 	-0.984375 	0.5 	147.409
0.078125 	-0.984375 	0.5 	147.446
0.09375 	-0.984375 	0.5 	147.48
0.109375 	-0.984375 	0.5 	147.491
0.125 	-0.984375 	0.5 	147.539
0.140625 	-0.984375 	0.5 	147.583
0.15625 	-0.984375 	0.5 	147.606
0.171875 	-0.984375 	0.5 	147.651
0.1875 	-0.984375 	0.5 	147.697
0.203125 	-0.984375 	0.5 	147.709
0.21875 	-0.984375 	0.5 	147.739
0.234375 	-0.984375 	0.5 	147.792
0.25 	-0.984375 	0.5 	147.895
0.265625 	-0.984375 	0.5 	147.945
0.28125 	-0.984375 	0.5 	148.005
0.296875 	-0.984375 	0.5 	148.078
0.3125 	-0.984375 	0.5 	148.122
0.328125 	-0.984375 	0.5 	148.156
0.34375 	-0.984375 	0.5 	148.248
0.359375 	-0.984375 	0.5 	148.331
0.375 	-0.984375 	0.5 	148.42
0.390625 	-0.984375 	0.5 	148.457
0.40625 	-0.984375 	0.5 	148.569
0.421875 	-0.984375 	0.5 	148.661
0.4375 	-0.984375 	0.5 	148.755
0.453125 	-0.984375 	0.5 	148.786
0.46875 	-0.984375 	0.5 	148.922
0.484375 	-0.984375 	0.5 	149.023
0.5 	-0.984375 	0.5 	149.115
0.515625 	-0.984375 	0.5 	149.189
0.53125 	-0.984375 	0.5 	149.276
0.546875 	-0.984375 	0.5 	149.353
0.5625 	-0.984375 	0.5 	149.453
0.578125 	-0.984375 	0.5 	149.588
0.59375 	-0.984375 	0.5 	149.694
0.609375 	-0.984375 	0.5 	149.771
0.625 	-0.984375 	0.5 	149.879
0.640625 	-0.984375 	0.5 	149.763
0.65625 	-0.984375 	0.5 	149.95
0.671875 	-0.984375 	0.5 	150.07
0.6875 	-0.984375 	0.5 	150.208
0.703125 	-0.984375 	0.5 	150.221
0.71875 	-0.984375 	0.5 	150.237
0.734375 	-0.984375 	0.5 	150.281
0.75 	-0.984375 	0.5 	150.326
0.765625 	-0.984375 	0.5 	150.334
0.78125 	-0.984375 	0.5 	150.391
0.796875 	-0.984375 	0.5 	150.414
0.8125 	-0.984375 	0.5 	150.419
0.828125 	-0.984375 	0.5 	150.414
0.84375 	-0.984375 	0.5 	150.409
0.859375 	-0.984375 	0.5 	150.364
0.875 	-0.984375 	0.5 	150.317
0.890625 	-0.984375 	0.5 	150.274
0.90625 	-0.984375 	0.5 	150.239
0.921875 	-0.984375 	0.5 	150.208
0.9375 	-0.984375 	0.5 	150.148
0.953125 	-0.984375 	0.5 	150.037
0.96875 	-0.984375 	0.5 	149.953
0.984375 	-0.984375 	0.5 	149.925
1 	-0.984375 	0.5 	149.827
1.01562 	-0.984375 	0.5 	149.685
1.03125 	-0.984375 	0.5 	149.547
1.04688 	-0.984375 	0.5 	149.455
1.0625 	-0.984375 	0.5 	149.281
1.07812 	-0.984375 	0.5 	149.088
1.09375 	-0.984375 	0.5 	148.93
1.10938 	-0.984375 	0.5 	148.642
1.125 	-0.984375 	0.5 	148.561
1.14062 	-0.984375 	0.5 	148.363
1.15625 	-0.984375 	0.5 	148.282
1.17188 	-0.984375 	0.5 	148.086
1.1875 	-0.984375 	0.5 	147.862
1.20312 	-0.984375 	0.5 	147.616
1.21875 	-0.984375 	0.5 	147.369
1.23438 	-0.984375 	0.5 	147.152
1.25 	-0.984375 	0.5 	146.924
1.26562 	-0.984375 	0.5 	146.628
1.28125 	-0.984375 	0.5 	146.383
1.29688 	-0.984375 	0.5 	146.091
1.3125 	-0.984375 	0.5 	145.915
1.32812 	-0.984375 	0.5 	145.622
1.34375 	-0.984375 	0.5 	145.461
1.35938 	-0.984375 	0.5 	145.103
1.375 	-0.984375 	0.5 	144.75
1.39062 	-0.984375 	0.5 	144.423
1.40625 	-0.984375 	0.5 	144.153
1.42188 	-0.984375 	0.5 	143.951
1.4375 	-0.984375 	0.5 	143.62
1.45312 	-0.984375 	0.5 	143.309
1.46875 	-0.984375 	0.5 	143.02
1.48438 	-0.984375 	0.5 	142.934
-0.5 	-0.96875 	0.5 	143.934
-0.484375 	-0.96875 	0.5 	144.145
-0.46875 	-0.96875 	0.5 	144.343
-0.453125 	-0.96875 	0.5 	144.505
-0.4375 	-0.96875 	0.5 	144.686
-0.421875 	-0.96875 	0.5 	144.92
-0.40625 	-0.96875 	0.5 	145.053
-0.390625 	-0.96875 	0.5 	145.242
-0.375 	-0.96875 	0.5 	145.394
-0.359375 	-0.96875 	0.5 	145.527
-0.34375 	-0.96875 	0.5 	145.67
-0.328125 	-0.96875 	0.5 	145.814
-0.3125 	-0.96875 	0.5 	145.935
-0.296875 	-0.96875 	0.5 	146.059
-0.28125 	-0.96875 	0.5 	146.193
-0.265625 	-0.96875 	0.5 	146.332
-0.25 	-0.96875 	0.5 	146.462
-0.234375 	-0.96875 	0.5 	146.592
-0.21875 	-0.96875 	0.5 	146.692
-0.203125 	-0.96875 	0.5 	146.736
-0.1875 	-0.96875 	0.5 	146.846
-0.171875 	-0.96875 	0.5 	146.966
-0.15625 	-0.96875 	0.5 	147.048
-0.140625 	-0.96875 	0.5 	147.099
-0.125 	-0.96875 	0.5 	147.143
-0.109375 	-0.96875 	0.5 	147.182
-0.09375 	-0.96875 	0.5 	147.216
-0.078125 	-0.96875 	0.5 	147.283
-0.0625 	-0.96875 	0.5 	147.343
-0.046875 	-0.96875 	0.5 	147.413
-0.03125 	-0.96875 	0.5 	147.439
-0.015625 	-0.96875 	0.5 	147.401
0 	-0.96875 	0.5 	147.447
0.015625 	-0.96875 	0.5 	147.5
0.03125 	-0.96875 	0.5 	147.545
0.046875 	-0.96875 	0.5 	147.591
0.0625 	-0.96875 	0.5 	147.617
0.078125 	-0.96875 	0.5 	147.652
0.09375 	-0.96875 	0.5 	147.643
0.109375 	-0.96875 	0.5 	147.658
0.125 	-0.96875 	0.5 	147.653
0.140625 	-0.96875 	0.5 	147.726
0.15625 	-0.96875 	0.5 	147.76
0.171875 	-0.96875 	0.5 	147.802
0.1875 	-0.96875 	0.5 	147.847
0.203125 	-0.96875 	0.5 	147.861
0.21875 	-0.96875 	0.5 	147.918
0.234375 	-0.96875 	0.5 	147.96
0.25 	-0.96875 	0.5 	148.041
0.265625 	-0.96875 	0.5 	148.107
0.28125 	-0.96875 	0.5 	148.139
0.296875 	-0.96875 	0.5 	148.209
0.3125 	-0.96875 	0.5 	148.276
0.328125 	-0.96875 	0.5 	148.333
0.34375 	-0.96875 	0.5 	148.402
0.359375 	-0.96875 	0.5 	148.49
0.375 	-0.96875 	0.5 	148.577
0.390625 	-0.96875 	0.5 	148.66
0.40625 	-0.96875 	0.5 	148.735
0.421875 	-0.96875 	0.5 	148.832
0.4375 	-0.96875 	0.5 	148.939
0.453125 	-0.96875 	0.5 	149.065
0.46875 	-0.96875 	0.5 	149.112
0.484375 	-0.96875 	0.5 	149.205
0.5 	-0.96875 	0.5 	149.299
0.515625 	-0.96875 	0.5 	149.397
0.53125 	-0.96875 	0.5 	149.497
0.546875 	-0.96875 	0.5 	149.577
0.5625 	-0.96875 	0.5 	149.798
0.578125 	-0.96875 	0.5 	149.898
0.59375 	-0.96875 	0.5 	149.924
0.609375 	-0.96875 	0.5 	149.984
0.625 	-0.96875 	0.5 	150.073
0.640625 	-0.96875 	0.5 	150.123
0.65625 	-0.96875 	0.5 	150.178
0.671875 	-0.96875 	0.5 	150.357
0.6875 	-0.96875 	0.5 	150.394
0.703125 	-0.96875 	0.5 	150.46
0.71875 	-0.96875 	0.5 	150.544
0.734375 	-0.96875 	0.5 	150.599
0.75 	-0.96875 	0.5 	150.645
0.765625 	-0.96875 	0.5 	150.655
0.78125 	-0.96875 	0.5 	150.695
0.796875 	-0.96875 	0.5 	150.753
0.8125 	-0.96875 	0.5 	150.747
0.828125 	-0.96875 	0.5 	150.724
0.84375 	-0.96875 	0.5 	150.736
0.859375 	-0.96875 	0.5 	150.724
0.875 	-0.96875 	0.5 	150.687
0.890625 	-0.96875 	0.5 	150.628
0.90625 	-0.96875 	0.5 	150.594
0.921875 	-0.96875 	0.5 	150.563
0.9375 	-0.96875 	0.5 	150.488
0.953125 	-0.96875 	0.5 	150.406
0.96875 	-0.96875 	0.5 	150.31
0.984375 	-0.96875 	0.5 	150.257
1 	-0.96875 	0.5 	150.111
1.01562 	-0.96875 	0.5 	149.977
1.03125 	-0.96875 	0.5 	149.841
1.04688 	-0.96875 	0.5 	149.699
1.0625 	-0.96875 	0.5 	149.608
1.07812 	-0.96875 	0.5 	149.45
1.09375 	-0.96875 	0.5 	149.304
1.10938 	-0.96875 	0.5 	149.1
1.125 	-0.96875 	0.5 	148.847
1.14062 	-0.96875 	0.5 	148.726
1.15625 	-0.96875 	0.5 	148.563
1.17188 	-0.96875 	0.5 	148.371
1.1875 	-0.96875 	0.5 	148.139
1.20312 	-0.96875 	0.5 	147.897
1.21875 	-0.96875 	0.5 	147.645
1.23438 	-0.96875 	0.5 	147.388
1.25 	-0.96875 	0.5 	147.133
1.26562 	-0.96875 	0.5 	146.824
1.28125 	-0.96875 	0.5 	146.633
1.29688 	-0.96875 	0.5 	146.347
1.3125 	-0.96875 	0.5 	146.182
1.32812 	-0.96875 	0.5 	145.891
1.34375 	-0.96875 	0.5 	145.595
1.35938 	-0.96875 	0.5 	145.215
1.375 	-0.96875 	0.5 	144.92
1.39062 	-0.96875 	0.5 	144.64
1.40625 	-0.96875 	0.5 	144.42
1.42188 	-0.96875 	0.5 	144.162
1.4375 	-0.96875 	0.5 	143.891
1.45312 	-0.96875 	0.5 	143.558
1.46875 	-0.96875 	0.5 	143.213
1.48438 	-0.96875 	0.5 	142.989
-0.5 	-0.953125 	0.5 	144.133
-0.484375 	-0.953125 	0.5 	144.332
-0.46875 	-0.953125 	0.5 	144.524
-0.453125 	-0.953125 	0.5 	144.707
-0.4375 	-0.953125 	0.5 	144.889
-0.421875 	-0.953125 	0.5 	145.127
-0.40625 	-0.953125 	0.5 	145.291
-0.390625 	-0.953125 	0.5 	145.469
-0.375 	-0.953125 	0.5 	145.612
-0.359375 	-0.953125 	0.5 	145.75
-0.34375 	-0.953125 	0.5 	145.885
-0.328125 	-0.953125 	0.5 	146.036
-0.3125 	-0.953125 	0.5 	146.193
-0.296875 	-0.953125 	0.5 	146.318
-0.28125 	-0.953125 	0.5 	146.437
-0.265625 	-0.953125 	0.5 	146.558
-0.25 	-0.953125 	0.5 	146.696
-0.234375 	-0.953125 	0.5 	146.828
-0.21875 	-0.953125 	0.5 	146.939
-0.203125 	-0.953125 	0.5 	146.992
-0.1875 	-0.953125 	0.5 	147.058
-0.171875 	-0.953125 	0.5 	147.12
-0.15625 	-0.953125 	0.5 	147.197
-0.140625 	-0.953125 	0.5 	147.288
-0.125 	-0.953125 	0.5 	147.385
-0.109375 	-0.953125 	0.5 	147.387
-0.09375 	-0.953125 	0.5 	147.479
-0.078125 	-0.953125 	0.5 	147.511
-0.0625 	-0.953125 	0.5 	147.578
-0.046875 	-0.953125 	0.5 	147.635
-0.03125 	-0.953125 	0.5 	147.64
-0.015625 	-0.953125 	0.5 	147.608
0 	-0.953125 	0.5 	147.654
0.015625 	-0.953125 	0.5 	147.675
0.03125 	-0.953125 	0.5 	147.718
0.046875 	-0.953125 	0.5 	147.763
0.0625 	-0.953125 	0.5 	147.782
0.078125 	-0.953125 	0.5 	147.816
0.09375 	-0.953125 	0.5 	147.813
0.109375 	-0.953125 	0.5 	147.833
0.125 	-0.953125 	0.5 	147.859
0.140625 	-0.953125 	0.5 	147.876
0.15625 	-0.953125 	0.5 	147.915
0.171875 	-0.953125 	0.5 	147.951
0.1875 	-0.953125 	0.5 	148.002
0.203125 	-0.953125 	0.5 	148.02
0.21875 	-0.953125 	0.5 	148.05
0.234375 	-0.953125 	0.5 	148.11
0.25 	-0.953125 	0.5 	148.194
0.265625 	-0.953125 	0.5 	148.241
0.28125 	-0.953125 	0.5 	148.295
0.296875 	-0.953125 	0.5 	148.349
0.3125 	-0.953125 	0.5 	148.411
0.328125 	-0.953125 	0.5 	148.473
0.34375 	-0.953125 	0.5 	148.55
0.359375 	-0.953125 	0.5 	148.638
0.375 	-0.953125 	0.5 	148.73
0.390625 	-0.953125 	0.5 	148.819
0.40625 	-0.953125 	0.5 	148.866
0.421875 	-0.953125 	0.5 	148.989
0.4375 	-0.953125 	0.5 	149.12
0.453125 	-0.953125 	0.5 	149.229
0.46875 	-0.953125 	0.5 	149.308
0.484375 	-0.953125 	0.5 	149.389
0.5 	-0.953125 	0.5 	149.499
0.515625 	-0.953125 	0.5 	149.603
0.53125 	-0.953125 	0.5 	149.72
0.546875 	-0.953125 	0.5 	149.819
0.5625 	-0.953125 	0.5 	150.022
0.578125 	-0.953125 	0.5 	150.1
0.59375 	-0.953125 	0.5 	150.125
0.609375 	-0.953125 	0.5 	150.263
0.625 	-0.953125 	0.5 	150.287
0.640625 	-0.953125 	0.5 	150.628
0.65625 	-0.953125 	0.5 	150.547
0.671875 	-0.953125 	0.5 	150.618
0.6875 	-0.953125 	0.5 	150.653
0.703125 	-0.953125 	0.5 	150.761
0.71875 	-0.953125 	0.5 	150.837
0.734375 	-0.953125 	0.5 	150.899
0.75 	-0.953125 	0.5 	150.969
0.765625 	-0.953125 	0.5 	151.12
0.78125 	-0.953125 	0.5 	151.077
0.796875 	-0.953125 	0.5 	151.105
0.8125 	-0.953125 	0.5 	151.057
0.828125 	-0.953125 	0.5 	151.029
0.84375 	-0.953125 	0.5 	151.063
0.859375 	-0.953125 	0.5 	151.143
0.875 	-0.953125 	0.5 	151.043
0.890625 	-0.953125 	0.5 	150.996
0.90625 	-0.953125 	0.5 	150.954
0.921875 	-0.953125 	0.5 	150.914
0.9375 	-0.953125 	0.5 	150.839
0.953125 	-0.953125 	0.5 	150.771
0.96875 	-0.953125 	0.5 	150.709
0.984375 	-0.953125 	0.5 	150.579
1 	-0.953125 	0.5 	150.437
1.01562 	-0.953125 	0.5 	150.3
1.03125 	-0.953125 	0.5 	150.185
1.04688 	-0.953125 	0.5 	150.087
1.0625 	-0.953125 	0.5 	149.975
1.07812 	-0.953125 	0.5 	149.789
1.09375 	-0.953125 	0.5 	149.685
1.10938 	-0.953125 	0.5 	149.436
1.125 	-0.953125 	0.5 	149.234
1.14062 	-0.953125 	0.5 	149.006
1.15625 	-0.953125 	0.5 	148.818
1.17188 	-0.953125 	0.5 	148.627
1.1875 	-0.953125 	0.5 	148.455
1.20312 	-0.953125 	0.5 	148.196
1.21875 	-0.953125 	0.5 	147.935
1.23438 	-0.953125 	0.5 	147.66
1.25 	-0.953125 	0.5 	147.39
1.26562 	-0.953125 	0.5 	147.118
1.28125 	-0.953125 	0.5 	146.846
1.29688 	-0.953125 	0.5 	146.602
1.3125 	-0.953125 	0.5 	146.363
1.32812 	-0.953125 	0.5 	146.063
1.34375 	-0.953125 	0.5 	145.818
1.35938 	-0.953125 	0.5 	145.53
1.375 	-0.953125 	0.5 	145.215
1.39062 	-0.953125 	0.5 	144.927
1.40625 	-0.953125 	0.5 	144.719
1.42188 	-0.953125 	0.5 	144.405
1.4375 	-0.953125 	0.5 	144.1
1.45312 	-0.953125 	0.5 	143.735
1.46875 	-0.953125 	0.5 	143.464
1.48438 	-0.953125 	0.5 	143.133
-0.5 	-0.9375 	0.5 	144.346
-0.484375 	-0.9375 	0.5 	144.539
-0.46875 	-0.9375 	0.5 	144.74
-0.453125 	-0.9375 	0.5 	144.928
-0.4375 	-0.9375 	0.5 	145.132
-0.421875 	-0.9375 	0.5 	145.336
-0.40625 	-0.9375 	0.5 	145.522
-0.390625 	-0.9375 	0.5 	145.664
-0.375 	-0.9375 	0.5 	145.809
-0.359375 	-0.9375 	0.5 	145.954
-0.34375 	-0.9375 	0.5 	146.129
-0.328125 	-0.9375 	0.5 	146.279
-0.3125 	-0.9375 	0.5 	146.448
-0.296875 	-0.9375 	0.5 	146.563
-0.28125 	-0.9375 	0.5 	146.687
-0.265625 	-0.9375 	0.5 	146.803
-0.25 	-0.9375 	0.5 	146.923
-0.234375 	-0.9375 	0.5 	147.062
-0.21875 	-0.9375 	0.5 	147.12
-0.203125 	-0.9375 	0.5 	147.217
-0.1875 	-0.9375 	0.5 	147.304
-0.171875 	-0.9375 	0.5 	147.332
-0.15625 	-0.9375 	0.5 	147.382
-0.140625 	-0.9375 	0.5 	147.485
-0.125 	-0.9375 	0.5 	147.656
-0.109375 	-0.9375 	0.5 	147.678
-0.09375 	-0.9375 	0.5 	147.718
-0.078125 	-0.9375 	0.5 	147.761
-0.0625 	-0.9375 	0.5 	147.817
-0.046875 	-0.9375 	0.5 	147.826
-0.03125 	-0.9375 	0.5 	147.823
-0.015625 	-0.9375 	0.5 	147.828
0 	-0.9375 	0.5 	147.837
0.015625 	-0.9375 	0.5 	147.85
0.03125 	-0.9375 	0.5 	147.892
0.046875 	-0.9375 	0.5 	147.962
0.0625 	-0.9375 	0.5 	147.987
0.078125 	-0.9375 	0.5 	147.965
0.09375 	-0.9375 	0.5 	147.97
0.109375 	-0.9375 	0.5 	147.967
0.125 	-0.9375 	0.5 	148.04
0.140625 	-0.9375 	0.5 	148.044
0.15625 	-0.9375 	0.5 	148.078
0.171875 	-0.9375 	0.5 	148.118
0.1875 	-0.9375 	0.5 	148.135
0.203125 	-0.9375 	0.5 	148.11
0.21875 	-0.9375 	0.5 	148.204
0.234375 	-0.9375 	0.5 	148.27
0.25 	-0.9375 	0.5 	148.32
0.265625 	-0.9375 	0.5 	148.367
0.28125 	-0.9375 	0.5 	148.427
0.296875 	-0.9375 	0.5 	148.482
0.3125 	-0.9375 	0.5 	148.551
0.328125 	-0.9375 	0.5 	148.634
0.34375 	-0.9375 	0.5 	148.712
0.359375 	-0.9375 	0.5 	148.782
0.375 	-0.9375 	0.5 	148.876
0.390625 	-0.9375 	0.5 	148.968
0.40625 	-0.9375 	0.5 	149.029
0.421875 	-0.9375 	0.5 	149.171
0.4375 	-0.9375 	0.5 	149.276
0.453125 	-0.9375 	0.5 	149.393
0.46875 	-0.9375 	0.5 	149.504
0.484375 	-0.9375 	0.5 	149.592
0.5 	-0.9375 	0.5 	149.697
0.515625 	-0.9375 	0.5 	149.816
0.53125 	-0.9375 	0.5 	149.932
0.546875 	-0.9375 	0.5 	150.048
0.5625 	-0.9375 	0.5 	150.166
0.578125 	-0.9375 	0.5 	150.31
0.59375 	-0.9375 	0.5 	150.327
0.609375 	-0.9375 	0.5 	150.437
0.625 	-0.9375 	0.5 	150.599
0.640625 	-0.9375 	0.5 	150.79
0.65625 	-0.9375 	0.5 	150.879
0.671875 	-0.9375 	0.5 	150.86
0.6875 	-0.9375 	0.5 	150.923
0.703125 	-0.9375 	0.5 	151.06
0.71875 	-0.9375 	0.5 	151.157
0.734375 	-0.9375 	0.5 	151.222
0.75 	-0.9375 	0.5 	151.293
0.765625 	-0.9375 	0.5 	151.365
0.78125 	-0.9375 	0.5 	151.439
0.796875 	-0.9375 	0.5 	151.462
0.8125 	-0.9375 	0.5 	151.326
0.828125 	-0.9375 	0.5 	151.331
0.84375 	-0.9375 	0.5 	151.391
0.859375 	-0.9375 	0.5 	151.398
0.875 	-0.9375 	0.5 	151.424
0.890625 	-0.9375 	0.5 	151.428
0.90625 	-0.9375 	0.5 	151.375
0.921875 	-0.9375 	0.5 	151.293
0.9375 	-0.9375 	0.5 	151.221
0.953125 	-0.9375 	0.5 	151.212
0.96875 	-0.9375 	0.5 	151.085
0.984375 	-0.9375 	0.5 	150.933
1 	-0.9375 	0.5 	150.848
1.01562 	-0.9375 	0.5 	150.687
1.03125 	-0.9375 	0.5 	150.525
1.04688 	-0.9375 	0.5 	150.39
1.0625 	-0.9375 	0.5 	150.25
1.07812 	-0.9375 	0.5 	150.111
1.09375 	-0.9375 	0.5 	149.96
1.10938 	-0.9375 	0.5 	149.8
1.125 	-0.9375 	0.5 	149.571
1.14062 	-0.9375 	0.5 	149.284
1.15625 	-0.9375 	0.5 	149.125
1.17188 	-0.9375 	0.5 	148.933
1.1875 	-0.9375 	0.5 	148.805
1.20312 	-0.9375 	0.5 	148.503
1.21875 	-0.9375 	0.5 	148.244
1.23438 	-0.9375 	0.5 	147.921
1.25 	-0.9375 	0.5 	147.693
1.26562 	-0.9375 	0.5 	147.425
1.28125 	-0.9375 	0.5 	147.149
1.29688 	-0.9375 	0.5 	146.859
1.3125 	-0.9375 	0.5 	146.547
1.32812 	-0.9375 	0.5 	146.247
1.34375 	-0.9375 	0.5 	146.037
1.35938 	-0.9375 	0.5 	145.799
1.375 	-0.9375 	0.5 	145.449
1.39062 	-0.9375 	0.5 	145.153
1.40625 	-0.9375 	0.5 	144.858
1.42188 	-0.9375 	0.5 	144.566
1.4375 	-0.9375 	0.5 	144.271
1.45312 	-0.9375 	0.5 	143.994
1.46875 	-0.9375 	0.5 	143.687
1.48438 	-0.9375 	0.5 	143.279
-0.5 	-0.921875 	0.5 	144.548
-0.484375 	-0.921875 	0.5 	144.741
-0.46875 	-0.921875 	0.5 	144.951
-0.453125 	-0.921875 	0.5 	145.134
-0.4375 	-0.921875 	0.5 	145.339
-0.421875 	-0.921875 	0.5 	145.569
-0.40625 	-0.921875 	0.5 	145.79
-0.390625 	-0.921875 	0.5 	145.912
-0.375 	-0.921875 	0.5 	146.045
-0.359375 	-0.921875 	0.5 	146.207
-0.34375 	-0.921875 	0.5 	146.375
-0.328125 	-0.921875 	0.5 	146.524
-0.3125 	-0.921875 	0.5 	146.674
-0.296875 	-0.921875 	0.5 	146.812
-0.28125 	-0.921875 	0.5 	146.931
-0.265625 	-0.921875 	0.5 	147.048
-0.25 	-0.921875 	0.5 	147.174
-0.234375 	-0.921875 	0.5 	147.266
-0.21875 	-0.921875 	0.5 	147.369
-0.203125 	-0.921875 	0.5 	147.467
-0.1875 	-0.921875 	0.5 	147.55
-0.171875 	-0.921875 	0.5 	147.562
-0.15625 	-0.921875 	0.5 	147.609
-0.140625 	-0.921875 	0.5 	147.683
-0.125 	-0.921875 	0.5 	147.82
-0.109375 	-0.921875 	0.5 	147.906
-0.09375 	-0.921875 	0.5 	147.965
-0.078125 	-0.921875 	0.5 	148.005
-0.0625 	-0.921875 	0.5 	148.054
-0.046875 	-0.921875 	0.5 	148.016
-0.03125 	-0.921875 	0.5 	147.972
-0.015625 	-0.921875 	0.5 	148.042
0 	-0.921875 	0.5 	148.079
0.015625 	-0.921875 	0.5 	148.065
0.03125 	-0.921875 	0.5 	148.066
0.046875 	-0.921875 	0.5 	148.088
0.0625 	-0.921875 	0.5 	148.112
0.078125 	-0.921875 	0.5 	148.125
0.09375 	-0.921875 	0.5 	148.11
0.109375 	-0.921875 	0.5 	148.088
0.125 	-0.921875 	0.5 	148.194
0.140625 	-0.921875 	0.5 	148.188
0.15625 	-0.921875 	0.5 	148.201
0.171875 	-0.921875 	0.5 	148.234
0.1875 	-0.921875 	0.5 	148.261
0.203125 	-0.921875 	0.5 	148.291
0.21875 	-0.921875 	0.5 	148.341
0.234375 	-0.921875 	0.5 	148.388
0.25 	-0.921875 	0.5 	148.441
0.265625 	-0.921875 	0.5 	148.491
0.28125 	-0.921875 	0.5 	148.548
0.296875 	-0.921875 	0.5 	148.614
0.3125 	-0.921875 	0.5 	148.683
0.328125 	-0.921875 	0.5 	148.78
0.34375 	-0.921875 	0.5 	148.868
0.359375 	-0.921875 	0.5 	148.94
0.375 	-0.921875 	0.5 	149.021
0.390625 	-0.921875 	0.5 	149.103
0.40625 	-0.921875 	0.5 	149.185
0.421875 	-0.921875 	0.5 	149.319
0.4375 	-0.921875 	0.5 	149.443
0.453125 	-0.921875 	0.5 	149.564
0.46875 	-0.921875 	0.5 	149.686
0.484375 	-0.921875 	0.5 	149.803
0.5 	-0.921875 	0.5 	149.912
0.515625 	-0.921875 	0.5 	150.051
0.53125 	-0.921875 	0.5 	150.18
0.546875 	-0.921875 	0.5 	150.277
0.5625 	-0.921875 	0.5 	150.392
0.578125 	-0.921875 	0.5 	150.493
0.59375 	-0.921875 	0.5 	150.607
0.609375 	-0.921875 	0.5 	150.759
0.625 	-0.921875 	0.5 	150.873
0.640625 	-0.921875 	0.5 	150.98
0.65625 	-0.921875 	0.5 	151.113
0.671875 	-0.921875 	0.5 	151.195
0.6875 	-0.921875 	0.5 	151.304
0.703125 	-0.921875 	0.5 	151.394
0.71875 	-0.921875 	0.5 	151.492
0.734375 	-0.921875 	0.5 	151.563
0.75 	-0.921875 	0.5 	151.625
0.765625 	-0.921875 	0.5 	151.682
0.78125 	-0.921875 	0.5 	151.67
0.796875 	-0.921875 	0.5 	151.776
0.8125 	-0.921875 	0.5 	151.774
0.828125 	-0.921875 	0.5 	151.718
0.84375 	-0.921875 	0.5 	151.768
0.859375 	-0.921875 	0.5 	151.827
0.875 	-0.921875 	0.5 	151.792
0.890625 	-0.921875 	0.5 	151.814
0.90625 	-0.921875 	0.5 	151.748
0.921875 	-0.921875 	0.5 	151.667
0.9375 	-0.921875 	0.5 	151.586
0.953125 	-0.921875 	0.5 	151.52
0.96875 	-0.921875 	0.5 	151.448
0.984375 	-0.921875 	0.5 	151.294
1 	-0.921875 	0.5 	151.149
1.01562 	-0.921875 	0.5 	151.206
1.03125 	-0.921875 	0.5 	150.882
1.04688 	-0.921875 	0.5 	150.783
1.0625 	-0.921875 	0.5 	150.616
1.07812 	-0.921875 	0.5 	150.538
1.09375 	-0.921875 	0.5 	150.361
1.10938 	-0.921875 	0.5 	150.125
1.125 	-0.921875 	0.5 	149.877
1.14062 	-0.921875 	0.5 	149.63
1.15625 	-0.921875 	0.5 	149.419
1.17188 	-0.921875 	0.5 	149.243
1.1875 	-0.921875 	0.5 	149.012
1.20312 	-0.921875 	0.5 	148.791
1.21875 	-0.921875 	0.5 	148.558
1.23438 	-0.921875 	0.5 	148.252
1.25 	-0.921875 	0.5 	147.991
1.26562 	-0.921875 	0.5 	147.719
1.28125 	-0.921875 	0.5 	147.439
1.29688 	-0.921875 	0.5 	147.111
1.3125 	-0.921875 	0.5 	146.779
1.32812 	-0.921875 	0.5 	146.495
1.34375 	-0.921875 	0.5 	146.257
1.35938 	-0.921875 	0.5 	145.953
1.375 	-0.921875 	0.5 	145.723
1.39062 	-0.921875 	0.5 	145.367
1.40625 	-0.921875 	0.5 	145.101
1.42188 	-0.921875 	0.5 	144.774
1.4375 	-0.921875 	0.5 	144.435
1.45312 	-0.921875 	0.5 	144.09
1.46875 	-0.921875 	0.5 	143.769
1.48438 	-0.921875 	0.5 	143.447
-0.5 	-0.90625 	0.5 	144.756
-0.484375 	-0.90625 	0.5 	144.955
-0.46875 	-0.90625 	0.5 	145.157
-0.453125 	-0.90625 	0.5 	145.354
-0.4375 	-0.90625 	0.5 	145.597
-0.421875 	-0.90625 	0.5 	145.889
-0.40625 	-0.90625 	0.5 	146.026
-0.390625 	-0.90625 	0.5 	146.227
-0.375 	-0.90625 	0.5 	146.324
-0.359375 	-0.90625 	0.5 	146.46
-0.34375 	-0.90625 	0.5 	146.622
-0.328125 	-0.90625 	0.5 	146.771
-0.3125 	-0.90625 	0.5 	146.926
-0.296875 	-0.90625 	0.5 	147.088
-0.28125 	-0.90625 	0.5 	147.219
-0.265625 	-0.90625 	0.5 	147.348
-0.25 	-0.90625 	0.5 	147.464
-0.234375 	-0.90625 	0.5 	147.552
-0.21875 	-0.90625 	0.5 	147.542
-0.203125 	-0.90625 	0.5 	147.697
-0.1875 	-0.90625 	0.5 	147.797
-0.171875 	-0.90625 	0.5 	147.825
-0.15625 	-0.90625 	0.5 	147.853
-0.140625 	-0.90625 	0.5 	147.886
-0.125 	-0.90625 	0.5 	147.995
-0.109375 	-0.90625 	0.5 	148.11
-0.09375 	-0.90625 	0.5 	148.167
-0.078125 	-0.90625 	0.5 	148.213
-0.0625 	-0.90625 	0.5 	148.286
-0.046875 	-0.90625 	0.5 	148.292
-0.03125 	-0.90625 	0.5 	148.227
-0.015625 	-0.90625 	0.5 	148.257
0 	-0.90625 	0.5 	148.267
0.015625 	-0.90625 	0.5 	148.254
0.03125 	-0.90625 	0.5 	148.249
0.046875 	-0.90625 	0.5 	148.259
0.0625 	-0.90625 	0.5 	148.273
0.078125 	-0.90625 	0.5 	148.289
0.09375 	-0.90625 	0.5 	148.254
0.109375 	-0.90625 	0.5 	148.257
0.125 	-0.90625 	0.5 	148.288
0.140625 	-0.90625 	0.5 	148.405
0.15625 	-0.90625 	0.5 	148.362
0.171875 	-0.90625 	0.5 	148.381
0.1875 	-0.90625 	0.5 	148.389
0.203125 	-0.90625 	0.5 	148.46
0.21875 	-0.90625 	0.5 	148.478
0.234375 	-0.90625 	0.5 	148.501
0.25 	-0.90625 	0.5 	148.553
0.265625 	-0.90625 	0.5 	148.615
0.28125 	-0.90625 	0.5 	148.689
0.296875 	-0.90625 	0.5 	148.737
0.3125 	-0.90625 	0.5 	148.818
0.328125 	-0.90625 	0.5 	148.921
0.34375 	-0.90625 	0.5 	149.02
0.359375 	-0.90625 	0.5 	149.084
0.375 	-0.90625 	0.5 	149.159
0.390625 	-0.90625 	0.5 	149.261
0.40625 	-0.90625 	0.5 	149.37
0.421875 	-0.90625 	0.5 	149.493
0.4375 	-0.90625 	0.5 	149.617
0.453125 	-0.90625 	0.5 	149.758
0.46875 	-0.90625 	0.5 	149.858
0.484375 	-0.90625 	0.5 	150.02
0.5 	-0.90625 	0.5 	150.143
0.515625 	-0.90625 	0.5 	150.284
0.53125 	-0.90625 	0.5 	150.441
0.546875 	-0.90625 	0.5 	150.523
0.5625 	-0.90625 	0.5 	150.63
0.578125 	-0.90625 	0.5 	150.729
0.59375 	-0.90625 	0.5 	150.847
0.609375 	-0.90625 	0.5 	150.976
0.625 	-0.90625 	0.5 	151.145
0.640625 	-0.90625 	0.5 	151.256
0.65625 	-0.90625 	0.5 	151.364
0.671875 	-0.90625 	0.5 	151.501
0.6875 	-0.90625 	0.5 	151.645
0.703125 	-0.90625 	0.5 	151.744
0.71875 	-0.90625 	0.5 	151.821
0.734375 	-0.90625 	0.5 	151.9
0.75 	-0.90625 	0.5 	151.965
0.765625 	-0.90625 	0.5 	151.975
0.78125 	-0.90625 	0.5 	152.074
0.796875 	-0.90625 	0.5 	152.093
0.8125 	-0.90625 	0.5 	152.079
0.828125 	-0.90625 	0.5 	152.133
0.84375 	-0.90625 	0.5 	152.161
0.859375 	-0.90625 	0.5 	152.186
0.875 	-0.90625 	0.5 	152.204
0.890625 	-0.90625 	0.5 	152.207
0.90625 	-0.90625 	0.5 	152.098
0.921875 	-0.90625 	0.5 	151.955
0.9375 	-0.90625 	0.5 	151.899
0.953125 	-0.90625 	0.5 	151.836
0.96875 	-0.90625 	0.5 	151.687
0.984375 	-0.90625 	0.5 	151.641
1 	-0.90625 	0.5 	151.702
1.01562 	-0.90625 	0.5 	151.648
1.03125 	-0.90625 	0.5 	151.463
1.04688 	-0.90625 	0.5 	151.174
1.0625 	-0.90625 	0.5 	151.032
1.07812 	-0.90625 	0.5 	150.885
1.09375 	-0.90625 	0.5 	150.664
1.10938 	-0.90625 	0.5 	150.492
1.125 	-0.90625 	0.5 	150.223
1.14062 	-0.90625 	0.5 	149.974
1.15625 	-0.90625 	0.5 	149.772
1.17188 	-0.90625 	0.5 	149.57
1.1875 	-0.90625 	0.5 	149.309
1.20312 	-0.90625 	0.5 	149.096
1.21875 	-0.90625 	0.5 	148.901
1.23438 	-0.90625 	0.5 	148.596
1.25 	-0.90625 	0.5 	148.293
1.26562 	-0.90625 	0.5 	147.983
1.28125 	-0.90625 	0.5 	147.695
1.29688 	-0.90625 	0.5 	147.363
1.3125 	-0.90625 	0.5 	147.034
1.32812 	-0.90625 	0.5 	146.734
1.34375 	-0.90625 	0.5 	146.459
1.35938 	-0.90625 	0.5 	146.209
1.375 	-0.90625 	0.5 	145.937
1.39062 	-0.90625 	0.5 	145.598
1.40625 	-0.90625 	0.5 	145.287
1.42188 	-0.90625 	0.5 	144.948
1.4375 	-0.90625 	0.5 	144.607
1.45312 	-0.90625 	0.5 	144.255
1.46875 	-0.90625 	0.5 	143.919
1.48438 	-0.90625 	0.5 	143.624
-0.5 	-0.890625 	0.5 	144.99
-0.484375 	-0.890625 	0.5 	145.189
-0.46875 	-0.890625 	0.5 	145.383
-0.453125 	-0.890625 	0.5 	145.595
-0.4375 	-0.890625 	0.5 	145.878
-0.421875 	-0.890625 	0.5 	146.126
-0.40625 	-0.890625 	0.5 	146.263
-0.390625 	-0.890625 	0.5 	146.498
-0.375 	-0.890625 	0.5 	146.606
-0.359375 	-0.890625 	0.5 	146.716
-0.34375 	-0.890625 	0.5 	146.884
-0.328125 	-0.890625 	0.5 	147.04
-0.3125 	-0.890625 	0.5 	147.222
-0.296875 	-0.890625 	0.5 	147.333
-0.28125 	-0.890625 	0.5 	147.517
-0.265625 	-0.890625 	0.5 	147.646
-0.25 	-0.890625 	0.5 	147.723
-0.234375 	-0.890625 	0.5 	147.825
-0.21875 	-0.890625 	0.5 	147.805
-0.203125 	-0.890625 	0.5 	147.937
-0.1875 	-0.890625 	0.5 	148.056
-0.171875 	-0.890625 	0.5 	148.11
-0.15625 	-0.890625 	0.5 	148.143
-0.140625 	-0.890625 	0.5 	148.173
-0.125 	-0.890625 	0.5 	148.246
-0.109375 	-0.890625 	0.5 	148.27
-0.09375 	-0.890625 	0.5 	148.368
-0.078125 	-0.890625 	0.5 	148.416
-0.0625 	-0.890625 	0.5 	148.517
-0.046875 	-0.890625 	0.5 	148.493
-0.03125 	-0.890625 	0.5 	148.469
-0.015625 	-0.890625 	0.5 	148.452
0 	-0.890625 	0.5 	148.447
0.015625 	-0.890625 	0.5 	148.442
0.03125 	-0.890625 	0.5 	148.437
0.046875 	-0.890625 	0.5 	148.452
0.0625 	-0.890625 	0.5 	148.453
0.078125 	-0.890625 	0.5 	148.454
0.09375 	-0.890625 	0.5 	148.43
0.109375 	-0.890625 	0.5 	148.411
0.125 	-0.890625 	0.5 	148.475
0.140625 	-0.890625 	0.5 	148.504
0.15625 	-0.890625 	0.5 	148.52
0.171875 	-0.890625 	0.5 	148.525
0.1875 	-0.890625 	0.5 	148.528
0.203125 	-0.890625 	0.5 	148.569
0.21875 	-0.890625 	0.5 	148.621
0.234375 	-0.890625 	0.5 	148.632
0.25 	-0.890625 	0.5 	148.676
0.265625 	-0.890625 	0.5 	148.731
0.28125 	-0.890625 	0.5 	148.801
0.296875 	-0.890625 	0.5 	148.863
0.3125 	-0.890625 	0.5 	148.969
0.328125 	-0.890625 	0.5 	149.049