-0.5 	-1 	0.5 	35.7681
-0.484375 	-1 	0.5 	36.0831
-0.46875 	-1 	0.5 	36.3135
-0.453125 	-1 	0.5 	36.4813
-0.4375 	-1 	0.5 	36.6753
-0.421875 	-1 	0.5 	36.8444
-0.40625 	-1 	0.5 	36.9801
-0.390625 	-1 	0.5 	37.1583
-0.375 	-1 	0.5 	37.3406
-0.359375 	-1 	0.5 	37.5142
-0.34375 	-1 	0.5 	37.6939
-0.328125 	-1 	0.5 	37.7679
-0.3125 	-1 	0.5 	37.9733
-0.296875 	-1 	0.5 	38.0797
-0.28125 	-1 	0.5 	38.2751
-0.265625 	-1 	0.5 	38.4212
-0.25 	-1 	0.5 	38.4961
-0.234375 	-1 	0.5 	38.5706
-0.21875 	-1 	0.5 	38.6672
-0.203125 	-1 	0.5 	38.7791
-0.1875 	-1 	0.5 	38.9558
-0.171875 	-1 	0.5 	39.1096
-0.15625 	-1 	0.5 	39.1614
-0.140625 	-1 	0.5 	39.2158
-0.125 	-1 	0.5 	39.2779
-0.109375 	-1 	0.5 	39.3609
-0.09375 	-1 	0.5 	39.4385
-0.078125 	-1 	0.5 	39.5052
-0.0625 	-1 	0.5 	39.5802
-0.046875 	-1 	0.5 	39.631
-0.03125 	-1 	0.5 	39.6414
-0.015625 	-1 	0.5 	39.6758
0 	-1 	0.5 	39.7163
0.015625 	-1 	0.5 	39.7561
0.03125 	-1 	0.5 	39.8071
0.046875 	-1 	0.5 	39.8057
0.0625 	-1 	0.5 	39.8307
0.078125 	-1 	0.5 	39.8346
0.09375 	-1 	0.5 	39.8415
0.109375 	-1 	0.5 	39.8407
0.125 	-1 	0.5 	39.854
0.140625 	-1 	0.5 	39.8632
0.15625 	-1 	0.5 	39.8716
0.171875 	-1 	0.5 	39.8817
0.1875 	-1 	0.5 	39.8916
0.203125 	-1 	0.5 	39.9235
0.21875 	-1 	0.5 	39.9482
0.234375 	-1 	0.5 	39.9363
0.25 	-1 	0.5 	39.8724
0.265625 	-1 	0.5 	39.8593
0.28125 	-1 	0.5 	39.8589
0.296875 	-1 	0.5 	39.8267
0.3125 	-1 	0.5 	39.8213
0.328125 	-1 	0.5 	39.8892
0.34375 	-1 	0.5 	39.8817
0.359375 	-1 	0.5 	39.8344
0.375 	-1 	0.5 	39.7805
0.390625 	-1 	0.5 	39.793
0.40625 	-1 	0.5 	39.8093
0.421875 	-1 	0.5 	39.8094
0.4375 	-1 	0.5 	39.7888
0.453125 	-1 	0.5 	39.7471
0.46875 	-1 	0.5 	39.7296
0.484375 	-1 	0.5 	39.698
0.5 	-1 	0.5 	39.6921
0.515625 	-1 	0.5 	39.7157
0.53125 	-1 	0.5 	39.6804
0.546875 	-1 	0.5 	39.6882
0.5625 	-1 	0.5 	39.664
0.578125 	-1 	0.5 	39.6344
0.59375 	-1 	0.5 	39.608
0.609375 	-1 	0.5 	39.6291
0.625 	-1 	0.5 	39.5751
0.640625 	-1 	0.5 	39.5414
0.65625 	-1 	0.5 	39.5033
0.671875 	-1 	0.5 	39.4657
0.6875 	-1 	0.5 	39.4473
0.703125 	-1 	0.5 	39.4198
0.71875 	-1 	0.5 	39.39
0.734375 	-1 	0.5 	39.335
0.75 	-1 	0.5 	39.2656
0.765625 	-1 	0.5 	39.2156
0.78125 	-1 	0.5 	39.1386
0.796875 	-1 	0.5 	39.0676
0.8125 	-1 	0.5 	38.9321
0.828125 	-1 	0.5 	38.9076
0.84375 	-1 	0.5 	38.8647
0.859375 	-1 	0.5 	38.8058
0.875 	-1 	0.5 	38.7082
0.890625 	-1 	0.5 	38.6105
0.90625 	-1 	0.5 	38.4903
0.921875 	-1 	0.5 	38.3995
0.9375 	-1 	0.5 	38.3404
0.953125 	-1 	0.5 	38.1363
0.96875 	-1 	0.5 	37.9641
0.984375 	-1 	0.5 	37.9644
1 	-1 	0.5 	37.8302
1.01562 	-1 	0.5 	37.7068
1.03125 	-1 	0.5 	37.4744
1.04688 	-1 	0.5 	37.327
1.0625 	-1 	0.5 	37.1749
1.07812 	-1 	0.5 	37.0231
1.09375 	-1 	0.5 	36.8838
1.10938 	-1 	0.5 	36.7129
1.125 	-1 	0.5 	36.5542
1.14062 	-1 	0.5 	36.3886
1.15625 	-1 	0.5 	36.1894
1.17188 	-1 	0.5 	35.9876
1.1875 	-1 	0.5 	35.8652
1.20312 	-1 	0.5 	35.6574
1.21875 	-1 	0.5 	35.4612
1.23438 	-1 	0.5 	35.2471
1.25 	-1 	0.5 	35.0346
1.26562 	-1 	0.5 	34.8164
1.28125 	-1 	0.5 	34.5879
1.29688 	-1 	0.5 	34.3766
1.3125 	-1 	0.5 	34.1742
1.32812 	-1 	0.5 	33.9368
1.34375 	-1 	0.5 	33.7093
1.35938 	-1 	0.5 	33.4744
1.375 	-1 	0.5 	33.2554
1.39062 	-1 	0.5 	33.0228
1.40625 	-1 	0.5 	32.8
1.42188 	-1 	0.5 	32.5762
1.4375 	-1 	0.5 	32.3297
1.45312 	-1 	0.5 	32.0545
1.46875 	-1 	0.5 	31.8155
1.48438 	-1 	0.5 	31.6034
-0.5 	-0.984375 	0.5 	36.0907
-0.484375 	-0.984375 	0.5 	36.2649
-0.46875 	-0.984375 	0.5 	36.4853
-0.453125 	-0.984375 	0.5 	36.6833
-0.4375 	-0.984375 	0.5 	36.8738
-0.421875 	-0.984375 	0.5 	37.0532
-0.40625 	-0.984375 	0.5 	37.2023
-0.390625 	-0.984375 	0.5 	37.3845
-0.375 	-0.984375 	0.5 	37.5666
-0.359375 	-0.984375 	0.5 	37.7237
-0.34375 	-0.984375 	0.5 	37.9244
-0.328125 	-0.984375 	0.5 	38.0933
-0.3125 	-0.984375 	0.5 	38.2625
-0.296875 	-0.984375 	0.5 	38.4187
-0.28125 	-0.984375 	0.5 	38.5748
-0.265625 	-0.984375 	0.5 	38.6987
-0.25 	-0.984375 	0.5 	38.7474
-0.234375 	-0.984375 	0.5 	38.8384
-0.21875 	-0.984375 	0.5 	38.9031
-0.203125 	-0.984375 	0.5 	39.0545
-0.1875 	-0.984375 	0.5 	39.1929
-0.171875 	-0.984375 	0.5 	39.3152
-0.15625 	-0.984375 	0.5 	39.3695
-0.140625 	-0.984375 	0.5 	39.4449
-0.125 	-0.984375 	0.5 	39.5453
-0.109375 	-0.984375 	0.5 	39.5931
-0.09375 	-0.984375 	0.5 	39.7154
-0.078125 	-0.984375 	0.5 	39.7711
-0.0625 	-0.984375 	0.5 	39.8605
-0.046875 	-0.984375 	0.5 	39.8588
-0.03125 	-0.984375 	0.5 	39.8787
-0.015625 	-0.984375 	0.5 	39.8496
0 	-0.984375 	0.5 	39.9246
0.015625 	-0.984375 	0.5 	39.9893
0.03125 	-0.984375 	0.5 	40.0248
0.046875 	-0.984375 	0.5 	40.0374
0.0625 	-0.984375 	0.5 	40.0558
0.078125 	-0.984375 	0.5 	40.0845
0.09375 	-0.984375 	0.5 	40.0811
0.109375 	-0.984375 	0.5 	40.0833
0.125 	-0.984375 	0.5 	40.0849
0.140625 	-0.984375 	0.5 	40.0901
0.15625 	-0.984375 	0.5 	40.1046
0.171875 	-0.984375 	0.5 	40.1136
0.1875 	-0.984375 	0.5 	40.1151
0.203125 	-0.984375 	0.5 	40.0773
0.21875 	-0.984375 	0.5 	40.0891
0.234375 	-0.984375 	0.5 	40.1011
0.25 	-0.984375 	0.5 	40.0789
0.265625 	-0.984375 	0.5 	40.1103
0.28125 	-0.984375 	0.5 	40.0373
0.296875 	-0.984375 	0.5 	40.0194
0.3125 	-0.984375 	0.5 	40.0233
0.328125 	-0.984375 	0.5 	40.0844
0.34375 	-0.984375 	0.5 	40.0663
0.359375 	-0.984375 	0.5 	40.0339
0.375 	-0.984375 	0.5 	39.9746
0.390625 	-0.984375 	0.5 	39.9863
0.40625 	-0.984375 	0.5 	40.02
0.421875 	-0.984375 	0.5 	39.9906
0.4375 	-0.984375 	0.5 	39.9626
0.453125 	-0.984375 	0.5 	39.9486
0.46875 	-0.984375 	0.5 	39.9267
0.484375 	-0.984375 	0.5 	39.9077
0.5 	-0.984375 	0.5 	39.8909
0.515625 	-0.984375 	0.5 	39.9369
0.53125 	-0.984375 	0.5 	39.9128
0.546875 	-0.984375 	0.5 	39.9028
0.5625 	-0.984375 	0.5 	39.8707
0.578125 	-0.984375 	0.5 	39.8422
0.59375 	-0.984375 	0.5 	39.8181
0.609375 	-0.984375 	0.5 	39.8621
0.625 	-0.984375 	0.5 	39.818
0.640625 	-0.984375 	0.5 	39.7595
0.65625 	-0.984375 	0.5 	39.7216
0.671875 	-0.984375 	0.5 	39.6986
0.6875 	-0.984375 	0.5 	39.6073
0.703125 	-0.984375 	0.5 	39.6077
0.71875 	-0.984375 	0.5 	39.6061
0.734375 	-0.984375 	0.5 	39.5593
0.75 	-0.984375 	0.5 	39.4991
0.765625 	-0.984375 	0.5 	39.4385
0.78125 	-0.984375 	0.5 	39.3675
0.796875 	-0.984375 	0.5 	39.2964
0.8125 	-0.984375 	0.5 	39.2032
0.828125 	-0.984375 	0.5 	39.1681
0.84375 	-0.984375 	0.5 	39.1138
0.859375 	-0.984375 	0.5 	39.0411
0.875 	-0.984375 	0.5 	38.958
0.890625 	-0.984375 	0.5 	38.8388
0.90625 	-0.984375 	0.5 	38.7226
0.921875 	-0.984375 	0.5 	38.6053
0.9375 	-0.984375 	0.5 	38.4887
0.953125 	-0.984375 	0.5 	38.2861
0.96875 	-0.984375 	0.5 	38.2371
0.984375 	-0.984375 	0.5 	38.2902
1 	-0.984375 	0.5 	38.089
1.01562 	-0.984375 	0.5 	37.9071
1.03125 	-0.984375 	0.5 	37.7337
1.04688 	-0.984375 	0.5 	37.5664
1.0625 	-0.984375 	0.5 	37.4358
1.07812 	-0.984375 	0.5 	37.3211
1.09375 	-0.984375 	0.5 	37.0717
1.10938 	-0.984375 	0.5 	36.9263
1.125 	-0.984375 	0.5 	36.7446
1.14062 	-0.984375 	0.5 	36.6019
1.15625 	-0.984375 	0.5 	36.3891
1.17188 	-0.984375 	0.5 	36.1595
1.1875 	-0.984375 	0.5 	36.0452
1.20312 	-0.984375 	0.5 	35.8449
1.21875 	-0.984375 	0.5 	35.7358
1.23438 	-0.984375 	0.5 	35.4503
1.25 	-0.984375 	0.5 	35.2528
1.26562 	-0.984375 	0.5 	35.0018
1.28125 	-0.984375 	0.5 	34.7692
1.29688 	-0.984375 	0.5 	34.5852
1.3125 	-0.984375 	0.5 	34.3092
1.32812 	-0.984375 	0.5 	34.0885
1.34375 	-0.984375 	0.5 	33.8134
1.35938 	-0.984375 	0.5 	33.606
1.375 	-0.984375 	0.5 	33.3927
1.39062 	-0.984375 	0.5 	33.1701
1.40625 	-0.984375 	0.5 	32.9518
1.42188 	-0.984375 	0.5 	32.7286
1.4375 	-0.984375 	0.5 	32.5001
1.45312 	-0.984375 	0.5 	32.2151
1.46875 	-0.984375 	0.5 	31.9558
1.48438 	-0.984375 	0.5 	31.6966
-0.5 	-0.96875 	0.5 	36.2356
-0.484375 	-0.96875 	0.5 	36.485
-0.46875 	-0.96875 	0.5 	36.6742
-0.453125 	-0.96875 	0.5 	36.8663
-0.4375 	-0.96875 	0.5 	37.058
-0.421875 	-0.96875 	0.5 	37.2484
-0.40625 	-0.96875 	0.5 	37.4285
-0.390625 	-0.96875 	0.5 	37.604
-0.375 	-0.96875 	0.5 	37.7783
-0.359375 	-0.96875 	0.5 	37.9331
-0.34375 	-0.96875 	0.5 	38.1202
-0.328125 	-0.96875 	0.5 	38.2845
-0.3125 	-0.96875 	0.5 	38.5067
-0.296875 	-0.96875 	0.5 	38.7202
-0.28125 	-0.96875 	0.5 	38.7974
-0.265625 	-0.96875 	0.5 	39.0125
-0.25 	-0.96875 	0.5 	39.0702
-0.234375 	-0.96875 	0.5 	39.1307
-0.21875 	-0.96875 	0.5 	39.2065
-0.203125 	-0.96875 	0.5 	39.3156
-0.1875 	-0.96875 	0.5 	39.4411
-0.171875 	-0.96875 	0.5 	39.5284
-0.15625 	-0.96875 	0.5 	39.6087
-0.140625 	-0.96875 	0.5 	39.6891
-0.125 	-0.96875 	0.5 	39.8042
-0.109375 	-0.96875 	0.5 	39.8775
-0.09375 	-0.96875 	0.5 	39.9851
-0.078125 	-0.96875 	0.5 	40.0394
-0.0625 	-0.96875 	0.5 	40.0855
-0.046875 	-0.96875 	0.5 	40.0916
-0.03125 	-0.96875 	0.5 	40.1146
-0.015625 	-0.96875 	0.5 	40.1015
0 	-0.96875 	0.5 	40.1473
0.015625 	-0.96875 	0.5 	40.2209
0.03125 	-0.96875 	0.5 	40.2715
0.046875 	-0.96875 	0.5 	40.3045
0.0625 	-0.96875 	0.5 	40.3334
0.078125 	-0.96875 	0.5 	40.3184
0.09375 	-0.96875 	0.5 	40.3075
0.109375 	-0.96875 	0.5 	40.3219
0.125 	-0.96875 	0.5 	40.3233
0.140625 	-0.96875 	0.5 	40.3711
0.15625 	-0.96875 	0.5 	40.3423
0.171875 	-0.96875 	0.5 	40.3399
0.1875 	-0.96875 	0.5 	40.3223
0.203125 	-0.96875 	0.5 	40.2846
0.21875 	-0.96875 	0.5 	40.2219
0.234375 	-0.96875 	0.5 	40.2596
0.25 	-0.96875 	0.5 	40.3131
0.265625 	-0.96875 	0.5 	40.2949
0.28125 	-0.96875 	0.5 	40.2051
0.296875 	-0.96875 	0.5 	40.1715
0.3125 	-0.96875 	0.5 	40.2254
0.328125 	-0.96875 	0.5 	40.2277
0.34375 	-0.96875 	0.5 	40.225
0.359375 	-0.96875 	0.5 	40.241
0.375 	-0.96875 	0.5 	40.2116
0.390625 	-0.96875 	0.5 	40.1945
0.40625 	-0.96875 	0.5 	40.2093
0.421875 	-0.96875 	0.5 	40.1719
0.4375 	-0.96875 	0.5 	40.1314
0.453125 	-0.96875 	0.5 	40.1366
0.46875 	-0.96875 	0.5 	40.1064
0.484375 	-0.96875 	0.5 	40.091
0.5 	-0.96875 	0.5 	40.1337
0.515625 	-0.96875 	0.5 	40.1325
0.53125 	-0.96875 	0.5 	40.1821
0.546875 	-0.96875 	0.5 	40.118
0.5625 	-0.96875 	0.5 	40.1036
0.578125 	-0.96875 	0.5 	40.0578
0.59375 	-0.96875 	0.5 	40.0311
0.609375 	-0.96875 	0.5 	40.0313
0.625 	-0.96875 	0.5 	40.0204
0.640625 	-0.96875 	0.5 	39.9884
0.65625 	-0.96875 	0.5 	39.9323
0.671875 	-0.96875 	0.5 	39.8669
0.6875 	-0.96875 	0.5 	39.8716
0.703125 	-0.96875 	0.5 	39.8624
0.71875 	-0.96875 	0.5 	39.8181
0.734375 	-0.96875 	0.5 	39.7929
0.75 	-0.96875 	0.5 	39.7345
0.765625 	-0.96875 	0.5 	39.7059
0.78125 	-0.96875 	0.5 	39.6343
0.796875 	-0.96875 	0.5 	39.5432
0.8125 	-0.96875 	0.5 	39.4713
0.828125 	-0.96875 	0.5 	39.4214
0.84375 	-0.96875 	0.5 	39.3808
0.859375 	-0.96875 	0.5 	39.3143
0.875 	-0.96875 	0.5 	39.2144
0.890625 	-0.96875 	0.5 	39.0431
0.90625 	-0.96875 	0.5 	38.9412
0.921875 	-0.96875 	0.5 	38.827
0.9375 	-0.96875 	0.5 	38.9015
0.953125 	-0.96875 	0.5 	38.6619
0.96875 	-0.96875 	0.5 	38.5536
0.984375 	-0.96875 	0.5 	38.4228
1 	-0.96875 	0.5 	38.336
1.01562 	-0.96875 	0.5 	38.1208
1.03125 	-0.96875 	0.5 	37.9881
1.04688 	-0.96875 	0.5 	37.834
1.0625 	-0.96875 	0.5 	37.7036
1.07812 	-0.96875 	0.5 	37.5725
1.09375 	-0.96875 	0.5 	37.3499
1.10938 	-0.96875 	0.5 	37.1354
1.125 	-0.96875 	0.5 	36.999
1.14062 	-0.96875 	0.5 	36.8207
1.15625 	-0.96875 	0.5 	36.6215
1.17188 	-0.96875 	0.5 	36.4017
1.1875 	-0.96875 	0.5 	36.2287
1.20312 	-0.96875 	0.5 	36.1047
1.21875 	-0.96875 	0.5 	35.9512
1.23438 	-0.96875 	0.5 	35.6639
1.25 	-0.96875 	0.5 	35.4189
1.26562 	-0.96875 	0.5 	35.2267
1.28125 	-0.96875 	0.5 	34.9388
1.29688 	-0.96875 	0.5 	34.6951
1.3125 	-0.96875 	0.5 	34.4408
1.32812 	-0.96875 	0.5 	34.2369
1.34375 	-0.96875 	0.5 	33.9916
1.35938 	-0.96875 	0.5 	33.7738
1.375 	-0.96875 	0.5 	33.5255
1.39062 	-0.96875 	0.5 	33.3014
1.40625 	-0.96875 	0.5 	33.0816
1.42188 	-0.96875 	0.5 	32.8668
1.4375 	-0.96875 	0.5 	32.6526
1.45312 	-0.96875 	0.5 	32.3557
1.46875 	-0.96875 	0.5 	32.0534
1.48438 	-0.96875 	0.5 	31.801
-0.5 	-0.953125 	0.5 	36.4806
-0.484375 	-0.953125 	0.5 	36.696
-0.46875 	-0.953125 	0.5 	36.906
-0.453125 	-0.953125 	0.5 	37.0469
-0.4375 	-0.953125 	0.5 	37.2325
-0.421875 	-0.953125 	0.5 	37.4616
-0.40625 	-0.953125 	0.5 	37.6635
-0.390625 	-0.953125 	0.5 	37.7963
-0.375 	-0.953125 	0.5 	37.9729
-0.359375 	-0.953125 	0.5 	38.1426
-0.34375 	-0.953125 	0.5 	38.3116
-0.328125 	-0.953125 	0.5 	38.4771
-0.3125 	-0.953125 	0.5 	38.7072
-0.296875 	-0.953125 	0.5 	38.9341
-0.28125 	-0.953125 	0.5 	39.0681
-0.265625 	-0.953125 	0.5 	39.2157
-0.25 	-0.953125 	0.5 	39.2735
-0.234375 	-0.953125 	0.5 	39.4012
-0.21875 	-0.953125 	0.5 	39.6552
-0.203125 	-0.953125 	0.5 	39.7554
-0.1875 	-0.953125 	0.5 	39.8064
-0.171875 	-0.953125 	0.5 	39.8163
-0.15625 	-0.953125 	0.5 	39.8956
-0.140625 	-0.953125 	0.5 	39.974
-0.125 	-0.953125 	0.5 	40.0524
-0.109375 	-0.953125 	0.5 	40.1196
-0.09375 	-0.953125 	0.5 	40.1847
-0.078125 	-0.953125 	0.5 	40.2498
-0.0625 	-0.953125 	0.5 	40.36
-0.046875 	-0.953125 	0.5 	40.3613
-0.03125 	-0.953125 	0.5 	40.3573
-0.015625 	-0.953125 	0.5 	40.3629
0 	-0.953125 	0.5 	40.4314
0.015625 	-0.953125 	0.5 	40.4933
0.03125 	-0.953125 	0.5 	40.5261
0.046875 	-0.953125 	0.5 	40.57
0.0625 	-0.953125 	0.5 	40.6074
0.078125 	-0.953125 	0.5 	40.5648
0.09375 	-0.953125 	0.5 	40.5466
0.109375 	-0.953125 	0.5 	40.5537
0.125 	-0.953125 	0.5 	40.5824
0.140625 	-0.953125 	0.5 	40.5704
0.15625 	-0.953125 	0.5 	40.5723
0.171875 	-0.953125 	0.5 	40.5476
0.1875 	-0.953125 	0.5 	40.5345
0.203125 	-0.953125 	0.5 	40.4622
0.21875 	-0.953125 	0.5 	40.4836
0.234375 	-0.953125 	0.5 	40.4803
0.25 	-0.953125 	0.5 	40.5344
0.265625 	-0.953125 	0.5 	40.493
0.28125 	-0.953125 	0.5 	40.4958
0.296875 	-0.953125 	0.5 	40.4743
0.3125 	-0.953125 	0.5 	40.4077
0.328125 	-0.953125 	0.5 	40.4107
0.34375 	-0.953125 	0.5 	40.4094
0.359375 	-0.953125 	0.5 	40.4282
0.375 	-0.953125 	0.5 	40.3964
0.390625 	-0.953125 	0.5 	40.3916
0.40625 	-0.953125 	0.5 	40.3831
0.421875 	-0.953125 	0.5 	40.3545
0.4375 	-0.953125 	0.5 	40.3668
0.453125 	-0.953125 	0.5 	40.3027
0.46875 	-0.953125 	0.5 	40.2913
0.484375 	-0.953125 	0.5 	40.3257
0.5 	-0.953125 	0.5 	40.3505
0.515625 	-0.953125 	0.5 	40.3449
0.53125 	-0.953125 	0.5 	40.3313
0.546875 	-0.953125 	0.5 	40.3345
0.5625 	-0.953125 	0.5 	40.3075
0.578125 	-0.953125 	0.5 	40.2578
0.59375 	-0.953125 	0.5 	40.2506
0.609375 	-0.953125 	0.5 	40.2285
0.625 	-0.953125 	0.5 	40.2151
0.640625 	-0.953125 	0.5 	40.1954
0.65625 	-0.953125 	0.5 	40.173
0.671875 	-0.953125 	0.5 	40.1453
0.6875 	-0.953125 	0.5 	40.1176
0.703125 	-0.953125 	0.5 	40.0819
0.71875 	-0.953125 	0.5 	40.0452
0.734375 	-0.953125 	0.5 	40.015
0.75 	-0.953125 	0.5 	39.976
0.765625 	-0.953125 	0.5 	39.9595
0.78125 	-0.953125 	0.5 	39.8716
0.796875 	-0.953125 	0.5 	39.7801
0.8125 	-0.953125 	0.5 	39.7125
0.828125 	-0.953125 	0.5 	39.6669
0.84375 	-0.953125 	0.5 	39.6228
0.859375 	-0.953125 	0.5 	39.5285
0.875 	-0.953125 	0.5 	39.4653
0.890625 	-0.953125 	0.5 	39.3799
0.90625 	-0.953125 	0.5 	39.2609
0.921875 	-0.953125 	0.5 	39.1605
0.9375 	-0.953125 	0.5 	39.081
0.953125 	-0.953125 	0.5 	38.9439
0.96875 	-0.953125 	0.5 	38.7439
0.984375 	-0.953125 	0.5 	38.6925
1 	-0.953125 	0.5 	38.5168
1.01562 	-0.953125 	0.5 	38.3427
1.03125 	-0.953125 	0.5 	38.1743
1.04688 	-0.953125 	0.5 	38.1385
1.0625 	-0.953125 	0.5 	37.9825
1.07812 	-0.953125 	0.5 	37.8323
1.09375 	-0.953125 	0.5 	37.634
1.10938 	-0.953125 	0.5 	37.4239
1.125 	-0.953125 	0.5 	37.2131
1.14062 	-0.953125 	0.5 	37.02
1.15625 	-0.953125 	0.5 	36.8231
1.17188 	-0.953125 	0.5 	36.6262
1.1875 	-0.953125 	0.5 	36.4243
1.20312 	-0.953125 	0.5 	36.2282
1.21875 	-0.953125 	0.5 	36.0272
1.23438 	-0.953125 	0.5 	35.8262
1.25 	-0.953125 	0.5 	35.5949
1.26562 	-0.953125 	0.5 	35.3129
1.28125 	-0.953125 	0.5 	35.056
1.29688 	-0.953125 	0.5 	34.8942
1.3125 	-0.953125 	0.5 	34.6467
1.32812 	-0.953125 	0.5 	34.3993
1.34375 	-0.953125 	0.5 	34.1575
1.35938 	-0.953125 	0.5 	33.9108
1.375 	-0.953125 	0.5 	33.6641
1.39062 	-0.953125 	0.5 	33.4348
1.40625 	-0.953125 	0.5 	33.2165
1.42188 	-0.953125 	0.5 	32.9804
1.4375 	-0.953125 	0.5 	32.7188
1.45312 	-0.953125 	0.5 	32.4273
1.46875 	-0.953125 	0.5 	32.1396
1.48438 	-0.953125 	0.5 	31.8756
-0.5 	-0.9375 	0.5 	36.7729
-0.484375 	-0.9375 	0.5 	36.9082
-0.46875 	-0.9375 	0.5 	37.1312
-0.453125 	-0.9375 	0.5 	37.2978
-0.4375 	-0.9375 	0.5 	37.4778
-0.421875 	-0.9375 	0.5 	37.7202
-0.40625 	-0.9375 	0.5 	37.9213
-0.390625 	-0.9375 	0.5 	38.0403
-0.375 	-0.9375 	0.5 	38.218
-0.359375 	-0.9375 	0.5 	38.3811
-0.34375 	-0.9375 	0.5 	38.5533
-0.328125 	-0.9375 	0.5 	38.7524
-0.3125 	-0.9375 	0.5 	38.9396
-0.296875 	-0.9375 	0.5 	39.148
-0.28125 	-0.9375 	0.5 	39.2798
-0.265625 	-0.9375 	0.5 	39.3749
-0.25 	-0.9375 	0.5 	39.4744
-0.234375 	-0.9375 	0.5 	39.6647
-0.21875 	-0.9375 	0.5 	39.9532
-0.203125 	-0.9375 	0.5 	39.9379
-0.1875 	-0.9375 	0.5 	40.1359
-0.171875 	-0.9375 	0.5 	40.1036
-0.15625 	-0.9375 	0.5 	40.1841
-0.140625 	-0.9375 	0.5 	40.2635
-0.125 	-0.9375 	0.5 	40.363
-0.109375 	-0.9375 	0.5 	40.3711
-0.09375 	-0.9375 	0.5 	40.4285
-0.078125 	-0.9375 	0.5 	40.4891
-0.0625 	-0.9375 	0.5 	40.6126
-0.046875 	-0.9375 	0.5 	40.686
-0.03125 	-0.9375 	0.5 	40.6148
-0.015625 	-0.9375 	0.5 	40.6458
0 	-0.9375 	0.5 	40.7066
0.015625 	-0.9375 	0.5 	40.7733
0.03125 	-0.9375 	0.5 	40.8019
0.046875 	-0.9375 	0.5 	40.8468
0.0625 	-0.9375 	0.5 	40.8501
0.078125 	-0.9375 	0.5 	40.8001
0.09375 	-0.9375 	0.5 	40.768
0.109375 	-0.9375 	0.5 	40.7909
0.125 	-0.9375 	0.5 	40.776
0.140625 	-0.9375 	0.5 	40.8108
0.15625 	-0.9375 	0.5 	40.7967
0.171875 	-0.9375 	0.5 	40.7598
0.1875 	-0.9375 	0.5 	40.7464
0.203125 	-0.9375 	0.5 	40.7178
0.21875 	-0.9375 	0.5 	40.6996
0.234375 	-0.9375 	0.5 	40.684
0.25 	-0.9375 	0.5 	40.7547
0.265625 	-0.9375 	0.5 	40.716
0.28125 	-0.9375 	0.5 	40.7139
0.296875 	-0.9375 	0.5 	40.6768
0.3125 	-0.9375 	0.5 	40.6263
0.328125 	-0.9375 	0.5 	40.5932
0.34375 	-0.9375 	0.5 	40.6069
0.359375 	-0.9375 	0.5 	40.608
0.375 	-0.9375 	0.5 	40.6116
0.390625 	-0.9375 	0.5 	40.5884
0.40625 	-0.9375 	0.5 	40.6064
0.421875 	-0.9375 	0.5 	40.6384
0.4375 	-0.9375 	0.5 	40.5674
0.453125 	-0.9375 	0.5 	40.4729
0.46875 	-0.9375 	0.5 	40.5292
0.484375 	-0.9375 	0.5 	40.5626
0.5 	-0.9375 	0.5 	40.5596
0.515625 	-0.9375 	0.5 	40.5413
0.53125 	-0.9375 	0.5 	40.5204
0.546875 	-0.9375 	0.5 	40.5092
0.5625 	-0.9375 	0.5 	40.4731
0.578125 	-0.9375 	0.5 	40.5225
0.59375 	-0.9375 	0.5 	40.5097
0.609375 	-0.9375 	0.5 	40.4661
0.625 	-0.9375 	0.5 	40.4582
0.640625 	-0.9375 	0.5 	40.4568
0.65625 	-0.9375 	0.5 	40.4101
0.671875 	-0.9375 	0.5 	40.3977
0.6875 	-0.9375 	0.5 	40.3585
0.703125 	-0.9375 	0.5 	40.3244
0.71875 	-0.9375 	0.5 	40.2998
0.734375 	-0.9375 	0.5 	40.2518
0.75 	-0.9375 	0.5 	40.2077
0.765625 	-0.9375 	0.5 	40.1226
0.78125 	-0.9375 	0.5 	40.1217
0.796875 	-0.9375 	0.5 	40.1198
0.8125 	-0.9375 	0.5 	40.019
0.828125 	-0.9375 	0.5 	39.9125
0.84375 	-0.9375 	0.5 	39.8411
0.859375 	-0.9375 	0.5 	39.7679
0.875 	-0.9375 	0.5 	39.7149
0.890625 	-0.9375 	0.5 	39.6401
0.90625 	-0.9375 	0.5 	39.5253
0.921875 	-0.9375 	0.5 	39.3994
0.9375 	-0.9375 	0.5 	39.3059
0.953125 	-0.9375 	0.5 	39.1335
0.96875 	-0.9375 	0.5 	39.0164
0.984375 	-0.9375 	0.5 	38.9189
1 	-0.9375 	0.5 	38.8184
1.01562 	-0.9375 	0.5 	38.6074
1.03125 	-0.9375 	0.5 	38.5
1.04688 	-0.9375 	0.5 	38.3702
1.0625 	-0.9375 	0.5 	38.2404
1.07812 	-0.9375 	0.5 	38.0755
1.09375 	-0.9375 	0.5 	37.8911
1.10938 	-0.9375 	0.5 	37.6616
1.125 	-0.9375 	0.5 	37.3956
1.14062 	-0.9375 	0.5 	37.236
1.15625 	-0.9375 	0.5 	37.0322
1.17188 	-0.9375 	0.5 	36.8057
1.1875 	-0.9375 	0.5 	36.5843
1.20312 	-0.9375 	0.5 	36.4015
1.21875 	-0.9375 	0.5 	36.2486
1.23438 	-0.9375 	0.5 	35.9985
1.25 	-0.9375 	0.5 	35.7742
1.26562 	-0.9375 	0.5 	35.5454
1.28125 	-0.9375 	0.5 	35.2502
1.29688 	-0.9375 	0.5 	35.0991
1.3125 	-0.9375 	0.5 	34.8373
1.32812 	-0.9375 	0.5 	34.5822
1.34375 	-0.9375 	0.5 	34.3127
1.35938 	-0.9375 	0.5 	34.0691
1.375 	-0.9375 	0.5 	33.8224
1.39062 	-0.9375 	0.5 	33.5757
1.40625 	-0.9375 	0.5 	33.3123
1.42188 	-0.9375 	0.5 	33.0482
1.4375 	-0.9375 	0.5 	32.7872
1.45312 	-0.9375 	0.5 	32.529
1.46875 	-0.9375 	0.5 	32.2522
1.48438 	-0.9375 	0.5 	31.9475
-0.5 	-0.921875 	0.5 	36.9316
-0.484375 	-0.921875 	0.5 	37.1224
-0.46875 	-0.921875 	0.5 	37.3411
-0.453125 	-0.921875 	0.5 	37.5371
-0.4375 	-0.921875 	0.5 	37.7238
-0.421875 	-0.921875 	0.5 	37.9491
-0.40625 	-0.921875 	0.5 	38.1491
-0.390625 	-0.921875 	0.5 	38.3326
-0.375 	-0.921875 	0.5 	38.4777
-0.359375 	-0.921875 	0.5 	38.6397
-0.34375 	-0.921875 	0.5 	38.8383
-0.328125 	-0.921875 	0.5 	39.0067
-0.3125 	-0.921875 	0.5 	39.2127
-0.296875 	-0.921875 	0.5 	39.4065
-0.28125 	-0.921875 	0.5 	39.489
-0.265625 	-0.921875 	0.5 	39.6757
-0.25 	-0.921875 	0.5 	39.7937
-0.234375 	-0.921875 	0.5 	39.9281
-0.21875 	-0.921875 	0.5 	40.0663
-0.203125 	-0.921875 	0.5 	40.2916
-0.1875 	-0.921875 	0.5 	40.3837
-0.171875 	-0.921875 	0.5 	40.3908
-0.15625 	-0.921875 	0.5 	40.4836
-0.140625 	-0.921875 	0.5 	40.5931
-0.125 	-0.921875 	0.5 	40.6719
-0.109375 	-0.921875 	0.5 	40.654
-0.09375 	-0.921875 	0.5 	40.6853
-0.078125 	-0.921875 	0.5 	40.745
-0.0625 	-0.921875 	0.5 	40.8203
-0.046875 	-0.921875 	0.5 	40.9157
-0.03125 	-0.921875 	0.5 	40.9972
-0.015625 	-0.921875 	0.5 	40.951
0 	-0.921875 	0.5 	40.9868
0.015625 	-0.921875 	0.5 	41.0535
0.03125 	-0.921875 	0.5 	41.0575
0.046875 	-0.921875 	0.5 	41.0614
0.0625 	-0.921875 	0.5 	41.0713
0.078125 	-0.921875 	0.5 	41.0498
0.09375 	-0.921875 	0.5 	41.0188
0.109375 	-0.921875 	0.5 	40.9842
0.125 	-0.921875 	0.5 	40.9982
0.140625 	-0.921875 	0.5 	41.0113
0.15625 	-0.921875 	0.5 	41.0404
0.171875 	-0.921875 	0.5 	41.0239
0.1875 	-0.921875 	0.5 	40.9733
0.203125 	-0.921875 	0.5 	40.9561
0.21875 	-0.921875 	0.5 	40.9306
0.234375 	-0.921875 	0.5 	40.976
0.25 	-0.921875 	0.5 	40.9591
0.265625 	-0.921875 	0.5 	40.9153
0.28125 	-0.921875 	0.5 	40.9077
0.296875 	-0.921875 	0.5 	40.8954
0.3125 	-0.921875 	0.5 	40.845
0.328125 	-0.921875 	0.5 	40.8285
0.34375 	-0.921875 	0.5 	40.8157
0.359375 	-0.921875 	0.5 	40.8159
0.375 	-0.921875 	0.5 	40.7965
0.390625 	-0.921875 	0.5 	40.7954
0.40625 	-0.921875 	0.5 	40.7796
0.421875 	-0.921875 	0.5 	40.847
0.4375 	-0.921875 	0.5 	40.7702
0.453125 	-0.921875 	0.5 	40.8032
0.46875 	-0.921875 	0.5 	40.8026
0.484375 	-0.921875 	0.5 	40.7486
0.5 	-0.921875 	0.5 	40.7439
0.515625 	-0.921875 	0.5 	40.734
0.53125 	-0.921875 	0.5 	40.7364
0.546875 	-0.921875 	0.5 	40.6556
0.5625 	-0.921875 	0.5 	40.6783
0.578125 	-0.921875 	0.5 	40.6772
0.59375 	-0.921875 	0.5 	40.6915
0.609375 	-0.921875 	0.5 	40.7384
0.625 	-0.921875 	0.5 	40.6995
0.640625 	-0.921875 	0.5 	40.681
0.65625 	-0.921875 	0.5 	40.6542
0.671875 	-0.921875 	0.5 	40.6364
0.6875 	-0.921875 	0.5 	40.5961
0.703125 	-0.921875 	0.5 	40.5573
0.71875 	-0.921875 	0.5 	40.5302
0.734375 	-0.921875 	0.5 	40.5115
0.75 	-0.921875 	0.5 	40.4277
0.765625 	-0.921875 	0.5 	40.4047
0.78125 	-0.921875 	0.5 	40.3789
0.796875 	-0.921875 	0.5 	40.3091
0.8125 	-0.921875 	0.5 	40.2925
0.828125 	-0.921875 	0.5 	40.1486
0.84375 	-0.921875 	0.5 	40.0498
0.859375 	-0.921875 	0.5 	39.9672
0.875 	-0.921875 	0.5 	39.9622
0.890625 	-0.921875 	0.5 	39.8871
0.90625 	-0.921875 	0.5 	39.7889
0.921875 	-0.921875 	0.5 	39.6665
0.9375 	-0.921875 	0.5 	39.5601
0.953125 	-0.921875 	0.5 	39.4447
0.96875 	-0.921875 	0.5 	39.2978
0.984375 	-0.921875 	0.5 	39.2099
1 	-0.921875 	0.5 	39.0689
1.01562 	-0.921875 	0.5 	38.8856
1.03125 	-0.921875 	0.5 	38.7479
1.04688 	-0.921875 	0.5 	38.6564
1.0625 	-0.921875 	0.5 	38.4868
1.07812 	-0.921875 	0.5 	38.2467
1.09375 	-0.921875 	0.5 	38.0416
1.10938 	-0.921875 	0.5 	37.8906
1.125 	-0.921875 	0.5 	37.633
1.14062 	-0.921875 	0.5 	37.4297
1.15625 	-0.921875 	0.5 	37.2083
1.17188 	-0.921875 	0.5 	36.9899
1.1875 	-0.921875 	0.5 	36.7944
1.20312 	-0.921875 	0.5 	36.5418
1.21875 	-0.921875 	0.5 	36.3787
1.23438 	-0.921875 	0.5 	36.1651
1.25 	-0.921875 	0.5 	35.9445
1.26562 	-0.921875 	0.5 	35.7224
1.28125 	-0.921875 	0.5 	35.4958
1.29688 	-0.921875 	0.5 	35.2566
1.3125 	-0.921875 	0.5 	35.0086
1.32812 	-0.921875 	0.5 	34.7482
1.34375 	-0.921875 	0.5 	34.4644
1.35938 	-0.921875 	0.5 	34.2226
1.375 	-0.921875 	0.5 	33.9734
1.39062 	-0.921875 	0.5 	33.7051
1.40625 	-0.921875 	0.5 	33.4229
1.42188 	-0.921875 	0.5 	33.1493
1.4375 	-0.921875 	0.5 	32.8849
1.45312 	-0.921875 	0.5 	32.6207
1.46875 	-0.921875 	0.5 	32.3453
1.48438 	-0.921875 	0.5 	32.0724
-0.5 	-0.90625 	0.5 	37.0836
-0.484375 	-0.90625 	0.5 	37.3176
-0.46875 	-0.90625 	0.5 	37.5214
-0.453125 	-0.90625 	0.5 	37.7242
-0.4375 	-0.90625 	0.5 	37.9543
-0.421875 	-0.90625 	0.5 	38.1095
-0.40625 	-0.90625 	0.5 	38.3041
-0.390625 	-0.90625 	0.5 	38.5927
-0.375 	-0.90625 	0.5 	38.8579
-0.359375 	-0.90625 	0.5 	38.9943
-0.34375 	-0.90625 	0.5 	39.1307
-0.328125 	-0.90625 	0.5 	39.3751
-0.3125 	-0.90625 	0.5 	39.6421
-0.296875 	-0.90625 	0.5 	39.6772
-0.28125 	-0.90625 	0.5 	39.8069
-0.265625 	-0.90625 	0.5 	39.7832
-0.25 	-0.90625 	0.5 	39.9562
-0.234375 	-0.90625 	0.5 	40.2019
-0.21875 	-0.90625 	0.5 	40.325
-0.203125 	-0.90625 	0.5 	40.3787
-0.1875 	-0.90625 	0.5 	40.4744
-0.171875 	-0.90625 	0.5 	40.6869
-0.15625 	-0.90625 	0.5 	40.8049
-0.140625 	-0.90625 	0.5 	40.8851
-0.125 	-0.90625 	0.5 	40.9809
-0.109375 	-0.90625 	0.5 	40.999
-0.09375 	-0.90625 	0.5 	41.0092
-0.078125 	-0.90625 	0.5 	41.0172
-0.0625 	-0.90625 	0.5 	41.142
-0.046875 	-0.90625 	0.5 	41.2278
-0.03125 	-0.90625 	0.5 	41.3342
-0.015625 	-0.90625 	0.5 	41.3449
0 	-0.90625 	0.5 	41.3188
0.015625 	-0.90625 	0.5 	41.3558
0.03125 	-0.90625 	0.5 	41.3239
0.046875 	-0.90625 	0.5 	41.3172
0.0625 	-0.90625 	0.5 	41.2941
0.078125 	-0.90625 	0.5 	41.2813
0.09375 	-0.90625 	0.5 	41.2699
0.109375 	-0.90625 	0.5 	41.2389
0.125 	-0.90625 	0.5 	41.2425
0.140625 	-0.90625 	0.5 	41.2624
0.15625 	-0.90625 	0.5 	41.2677
0.171875 	-0.90625 	0.5 	41.2536
0.1875 	-0.90625 	0.5 	41.2063
0.203125 	-0.90625 	0.5 	41.1878
0.21875 	-0.90625 	0.5 	41.1772
0.234375 	-0.90625 	0.5 	41.2053
0.25 	-0.90625 	0.5 	41.1493
0.265625 	-0.90625 	0.5 	41.1175
0.28125 	-0.90625 	0.5 	41.1131
0.296875 	-0.90625 	0.5 	41.0888
0.3125 	-0.90625 	0.5 	41.0601
0.328125 	-0.90625 	0.5 	41.0315
0.34375 	-0.90625 	0.5 	41.0057
0.359375 	-0.90625 	0.5 	41.0186
0.375 	-0.90625 	0.5 	41.0171
0.390625 	-0.90625 	0.5 	40.9925
0.40625 	-0.90625 	0.5 	40.9797
0.421875 	-0.90625 	0.5 	40.9901
0.4375 	-0.90625 	0.5 	40.9856
0.453125 	-0.90625 	0.5 	41.0422
0.46875 	-0.90625 	0.5 	41.0383
0.484375 	-0.90625 	0.5 	40.9349
0.5 	-0.90625 	0.5 	40.9319
0.515625 	-0.90625 	0.5 	40.9137
0.53125 	-0.90625 	0.5 	40.902
0.546875 	-0.90625 	0.5 	40.9077
0.5625 	-0.90625 	0.5 	40.9091
0.578125 	-0.90625 	0.5 	40.9081
0.59375 	-0.90625 	0.5 	40.9157
0.609375 	-0.90625 	0.5 	40.9655
0.625 	-0.90625 	0.5 	40.9259
0.640625 	-0.90625 	0.5 	40.9218
0.65625 	-0.90625 	0.5 	40.9202
0.671875 	-0.90625 	0.5 	40.8751
0.6875 	-0.90625 	0.5 	40.8321
0.703125 	-0.90625 	0.5 	40.7955
0.71875 	-0.90625 	0.5 	40.7621
0.734375 	-0.90625 	0.5 	40.7465
0.75 	-0.90625 	0.5 	40.6848
0.765625 	-0.90625 	0.5 	40.6656
0.78125 	-0.90625 	0.5 	40.645
0.796875 	-0.90625 	0.5 	40.5949
0.8125 	-0.90625 	0.5 	40.5369
0.828125 	-0.90625 	0.5 	40.4085
0.84375 	-0.90625 	0.5 	40.3608
0.859375 	-0.90625 	0.5 	40.2991
0.875 	-0.90625 	0.5 	40.2442
0.890625 	-0.90625 	0.5 	40.164
0.90625 	-0.90625 	0.5 	39.9765
0.921875 	-0.90625 	0.5 	39.937
0.9375 	-0.90625 	0.5 	39.8093
0.953125 	-0.90625 	0.5 	39.7126
0.96875 	-0.90625 	0.5 	39.5772
0.984375 	-0.90625 	0.5 	39.4648
1 	-0.90625 	0.5 	39.3227
1.01562 	-0.90625 	0.5 	39.174
1.03125 	-0.90625 	0.5 	38.993
1.04688 	-0.90625 	0.5 	38.8786
1.0625 	-0.90625 	0.5 	38.7198
1.07812 	-0.90625 	0.5 	38.5162
1.09375 	-0.90625 	0.5 	38.3121
1.10938 	-0.90625 	0.5 	38.112
1.125 	-0.90625 	0.5 	37.8757
1.14062 	-0.90625 	0.5 	37.7087
1.15625 	-0.90625 	0.5 	37.433
1.17188 	-0.90625 	0.5 	37.2109
1.1875 	-0.90625 	0.5 	37.0046
1.20312 	-0.90625 	0.5 	36.7744
1.21875 	-0.90625 	0.5 	36.5865
1.23438 	-0.90625 	0.5 	36.3885
1.25 	-0.90625 	0.5 	36.2017
1.26562 	-0.90625 	0.5 	35.9911
1.28125 	-0.90625 	0.5 	35.6834
1.29688 	-0.90625 	0.5 	35.3933
1.3125 	-0.90625 	0.5 	35.1412
1.32812 	-0.90625 	0.5 	34.8874
1.34375 	-0.90625 	0.5 	34.6235
1.35938 	-0.90625 	0.5 	34.369
1.375 	-0.90625 	0.5 	34.0995
1.39062 	-0.90625 	0.5 	33.8325
1.40625 	-0.90625 	0.5 	33.5595
1.42188 	-0.90625 	0.5 	33.2701
1.4375 	-0.90625 	0.5 	33.017
1.45312 	-0.90625 	0.5 	32.7281
1.46875 	-0.90625 	0.5 	32.4684
1.48438 	-0.90625 	0.5 	32.1963
-0.5 	-0.890625 	0.5 	37.289
-0.484375 	-0.890625 	0.5 	37.5544
-0.46875 	-0.890625 	0.5 	37.7164
-0.453125 	-0.890625 	0.5 	37.9656
-0.4375 	-0.890625 	0.5 	38.1561
-0.421875 	-0.890625 	0.5 	38.401
-0.40625 	-0.890625 	0.5 	38.5887
-0.390625 	-0.890625 	0.5 	38.8373
-0.375 	-0.890625 	0.5 	39.1471
-0.359375 	-0.890625 	0.5 	39.2142
-0.34375 	-0.890625 	0.5 	39.4332
-0.328125 	-0.890625 	0.5 	39.6035
-0.3125 	-0.890625 	0.5 	39.8606
-0.296875 	-0.890625 	0.5 	39.9561
-0.28125 	-0.890625 	0.5 	40.0981
-0.265625 	-0.890625 	0.5 	40.1351
-0.25 	-0.890625 	0.5 	40.3238
-0.234375 	-0.890625 	0.5 	40.4676
-0.21875 	-0.890625 	0.5 	40.5534
-0.203125 	-0.890625 	0.5 	40.7577
-0.1875 	-0.890625 	0.5 	40.723
-0.171875 	-0.890625 	0.5 	40.9968
-0.15625 	-0.890625 	0.5 	41.1447
-0.140625 	-0.890625 	0.5 	41.1931
-0.125 	-0.890625 	0.5 	41.2825
-0.109375 	-0.890625 	0.5 	41.3199
-0.09375 	-0.890625 	0.5 	41.2867
-0.078125 	-0.890625 	0.5 	41.3529
-0.0625 	-0.890625 	0.5 	41.4858
-0.046875 	-0.890625 	0.5 	41.5576
-0.03125 	-0.890625 	0.5 	41.6021
-0.015625 	-0.890625 	0.5 	41.5865
0 	-0.890625 	0.5 	41.5676
0.015625 	-0.890625 	0.5 	41.661
0.03125 	-0.890625 	0.5 	41.6517
0.046875 	-0.890625 	0.5 	41.5927
0.0625 	-0.890625 	0.5 	41.5528
0.078125 	-0.890625 	0.5 	41.4895
0.09375 	-0.890625 	0.5 	41.5271
0.109375 	-0.890625 	0.5 	41.5537
0.125 	-0.890625 	0.5 	41.4919
0.140625 	-0.890625 	0.5 	41.4892
0.15625 	-0.890625 	0.5 	41.4816
0.171875 	-0.890625 	0.5 	41.4741
0.1875 	-0.890625 	0.5 	41.4543
0.203125 	-0.890625 	0.5 	41.4354
0.21875 	-0.890625 	0.5 	41.4154
0.234375 	-0.890625 	0.5 	41.3616
0.25 	-0.890625 	0.5 	41.3506
0.265625 	-0.890625 	0.5 	41.3206
0.28125 	-0.890625 	0.5 	41.3
0.296875 	-0.890625 	0.5 	41.3022
0.3125 	-0.890625 	0.5 	41.2564
0.328125 	-0.890625 	0.5 	41.2233