-0.5 	-1 	0.5 	425.891
-0.484375 	-1 	0.5 	425.916
-0.46875 	-1 	0.5 	425.954
-0.453125 	-1 	0.5 	425.984
-0.4375 	-1 	0.5 	425.978
-0.421875 	-1 	0.5 	425.966
-0.40625 	-1 	0.5 	425.949
-0.390625 	-1 	0.5 	425.995
-0.375 	-1 	0.5 	425.925
-0.359375 	-1 	0.5 	425.904
-0.34375 	-1 	0.5 	425.855
-0.328125 	-1 	0.5 	425.829
-0.3125 	-1 	0.5 	425.762
-0.296875 	-1 	0.5 	425.673
-0.28125 	-1 	0.5 	425.6
-0.265625 	-1 	0.5 	425.558
-0.25 	-1 	0.5 	425.462
-0.234375 	-1 	0.5 	425.335
-0.21875 	-1 	0.5 	425.232
-0.203125 	-1 	0.5 	425.137
-0.1875 	-1 	0.5 	425.025
-0.171875 	-1 	0.5 	424.902
-0.15625 	-1 	0.5 	424.749
-0.140625 	-1 	0.5 	424.612
-0.125 	-1 	0.5 	424.477
-0.109375 	-1 	0.5 	424.335
-0.09375 	-1 	0.5 	424.171
-0.078125 	-1 	0.5 	424.032
-0.0625 	-1 	0.5 	423.876
-0.046875 	-1 	0.5 	423.701
-0.03125 	-1 	0.5 	423.527
-0.015625 	-1 	0.5 	423.366
0 	-1 	0.5 	423.227
0.015625 	-1 	0.5 	423.065
0.03125 	-1 	0.5 	422.915
0.046875 	-1 	0.5 	422.74
0.0625 	-1 	0.5 	422.543
0.078125 	-1 	0.5 	422.379
0.09375 	-1 	0.5 	422.249
0.109375 	-1 	0.5 	422.124
0.125 	-1 	0.5 	422.001
0.140625 	-1 	0.5 	421.866
0.15625 	-1 	0.5 	421.7
0.171875 	-1 	0.5 	421.571
0.1875 	-1 	0.5 	421.46
0.203125 	-1 	0.5 	421.36
0.21875 	-1 	0.5 	421.254
0.234375 	-1 	0.5 	421.147
0.25 	-1 	0.5 	421.057
0.265625 	-1 	0.5 	420.993
0.28125 	-1 	0.5 	420.925
0.296875 	-1 	0.5 	420.849
0.3125 	-1 	0.5 	420.799
0.328125 	-1 	0.5 	420.767
0.34375 	-1 	0.5 	420.698
0.359375 	-1 	0.5 	420.664
0.375 	-1 	0.5 	420.672
0.390625 	-1 	0.5 	420.679
0.40625 	-1 	0.5 	420.681
0.421875 	-1 	0.5 	420.687
0.4375 	-1 	0.5 	420.687
0.453125 	-1 	0.5 	420.715
0.46875 	-1 	0.5 	420.765
0.484375 	-1 	0.5 	420.8
0.5 	-1 	0.5 	420.833
0.515625 	-1 	0.5 	420.899
0.53125 	-1 	0.5 	420.957
0.546875 	-1 	0.5 	421.022
0.5625 	-1 	0.5 	421.1
0.578125 	-1 	0.5 	421.195
0.59375 	-1 	0.5 	421.286
0.609375 	-1 	0.5 	421.384
0.625 	-1 	0.5 	421.507
0.640625 	-1 	0.5 	421.607
0.65625 	-1 	0.5 	421.699
0.671875 	-1 	0.5 	421.82
0.6875 	-1 	0.5 	421.933
0.703125 	-1 	0.5 	421.996
0.71875 	-1 	0.5 	422.133
0.734375 	-1 	0.5 	422.262
0.75 	-1 	0.5 	422.379
0.765625 	-1 	0.5 	422.491
0.78125 	-1 	0.5 	422.61
0.796875 	-1 	0.5 	422.737
0.8125 	-1 	0.5 	422.851
0.828125 	-1 	0.5 	422.962
0.84375 	-1 	0.5 	423.061
0.859375 	-1 	0.5 	423.171
0.875 	-1 	0.5 	423.299
0.890625 	-1 	0.5 	423.396
0.90625 	-1 	0.5 	423.47
0.921875 	-1 	0.5 	423.574
0.9375 	-1 	0.5 	423.659
0.953125 	-1 	0.5 	423.745
0.96875 	-1 	0.5 	423.826
0.984375 	-1 	0.5 	423.915
1 	-1 	0.5 	423.927
1.01562 	-1 	0.5 	424.031
1.03125 	-1 	0.5 	424.06
1.04688 	-1 	0.5 	424.168
1.0625 	-1 	0.5 	424.195
1.07812 	-1 	0.5 	424.215
1.09375 	-1 	0.5 	424.247
1.10938 	-1 	0.5 	424.259
1.125 	-1 	0.5 	424.263
1.14062 	-1 	0.5 	424.326
1.15625 	-1 	0.5 	424.349
1.17188 	-1 	0.5 	424.284
1.1875 	-1 	0.5 	424.228
1.20312 	-1 	0.5 	424.208
1.21875 	-1 	0.5 	424.186
1.23438 	-1 	0.5 	424.17
1.25 	-1 	0.5 	424.131
1.26562 	-1 	0.5 	424.06
1.28125 	-1 	0.5 	424.012
1.29688 	-1 	0.5 	423.959
1.3125 	-1 	0.5 	423.865
1.32812 	-1 	0.5 	423.797
1.34375 	-1 	0.5 	423.723
1.35938 	-1 	0.5 	423.65
1.375 	-1 	0.5 	423.546
1.39062 	-1 	0.5 	423.443
1.40625 	-1 	0.5 	423.347
1.42188 	-1 	0.5 	423.247
1.4375 	-1 	0.5 	423.14
1.45312 	-1 	0.5 	423.017
1.46875 	-1 	0.5 	422.889
1.48438 	-1 	0.5 	422.76
-0.5 	-0.984375 	0.5 	426.186
-0.484375 	-0.984375 	0.5 	426.152
-0.46875 	-0.984375 	0.5 	426.154
-0.453125 	-0.984375 	0.5 	426.196
-0.4375 	-0.984375 	0.5 	426.188
-0.421875 	-0.984375 	0.5 	426.181
-0.40625 	-0.984375 	0.5 	426.178
-0.390625 	-0.984375 	0.5 	426.19
-0.375 	-0.984375 	0.5 	426.167
-0.359375 	-0.984375 	0.5 	426.133
-0.34375 	-0.984375 	0.5 	426.1
-0.328125 	-0.984375 	0.5 	426.053
-0.3125 	-0.984375 	0.5 	425.978
-0.296875 	-0.984375 	0.5 	425.902
-0.28125 	-0.984375 	0.5 	425.814
-0.265625 	-0.984375 	0.5 	425.703
-0.25 	-0.984375 	0.5 	425.612
-0.234375 	-0.984375 	0.5 	425.558
-0.21875 	-0.984375 	0.5 	425.5
-0.203125 	-0.984375 	0.5 	425.374
-0.1875 	-0.984375 	0.5 	425.228
-0.171875 	-0.984375 	0.5 	425.077
-0.15625 	-0.984375 	0.5 	424.925
-0.140625 	-0.984375 	0.5 	424.777
-0.125 	-0.984375 	0.5 	424.634
-0.109375 	-0.984375 	0.5 	424.476
-0.09375 	-0.984375 	0.5 	424.294
-0.078125 	-0.984375 	0.5 	424.152
-0.0625 	-0.984375 	0.5 	423.988
-0.046875 	-0.984375 	0.5 	423.818
-0.03125 	-0.984375 	0.5 	423.615
-0.015625 	-0.984375 	0.5 	423.454
0 	-0.984375 	0.5 	423.303
0.015625 	-0.984375 	0.5 	423.116
0.03125 	-0.984375 	0.5 	422.961
0.046875 	-0.984375 	0.5 	422.742
0.0625 	-0.984375 	0.5 	422.579
0.078125 	-0.984375 	0.5 	422.383
0.09375 	-0.984375 	0.5 	422.297
0.109375 	-0.984375 	0.5 	422.147
0.125 	-0.984375 	0.5 	421.984
0.140625 	-0.984375 	0.5 	421.845
0.15625 	-0.984375 	0.5 	421.66
0.171875 	-0.984375 	0.5 	421.537
0.1875 	-0.984375 	0.5 	421.424
0.203125 	-0.984375 	0.5 	421.338
0.21875 	-0.984375 	0.5 	421.198
0.234375 	-0.984375 	0.5 	421.086
0.25 	-0.984375 	0.5 	420.992
0.265625 	-0.984375 	0.5 	420.893
0.28125 	-0.984375 	0.5 	420.83
0.296875 	-0.984375 	0.5 	420.778
0.3125 	-0.984375 	0.5 	420.738
0.328125 	-0.984375 	0.5 	420.678
0.34375 	-0.984375 	0.5 	420.629
0.359375 	-0.984375 	0.5 	420.623
0.375 	-0.984375 	0.5 	420.595
0.390625 	-0.984375 	0.5 	420.583
0.40625 	-0.984375 	0.5 	420.593
0.421875 	-0.984375 	0.5 	420.604
0.4375 	-0.984375 	0.5 	420.624
0.453125 	-0.984375 	0.5 	420.647
0.46875 	-0.984375 	0.5 	420.709
0.484375 	-0.984375 	0.5 	420.728
0.5 	-0.984375 	0.5 	420.779
0.515625 	-0.984375 	0.5 	420.854
0.53125 	-0.984375 	0.5 	420.925
0.546875 	-0.984375 	0.5 	420.996
0.5625 	-0.984375 	0.5 	421.077
0.578125 	-0.984375 	0.5 	421.175
0.59375 	-0.984375 	0.5 	421.263
0.609375 	-0.984375 	0.5 	421.369
0.625 	-0.984375 	0.5 	421.485
0.640625 	-0.984375 	0.5 	421.621
0.65625 	-0.984375 	0.5 	421.727
0.671875 	-0.984375 	0.5 	421.838
0.6875 	-0.984375 	0.5 	421.926
0.703125 	-0.984375 	0.5 	422.014
0.71875 	-0.984375 	0.5 	422.144
0.734375 	-0.984375 	0.5 	422.288
0.75 	-0.984375 	0.5 	422.418
0.765625 	-0.984375 	0.5 	422.56
0.78125 	-0.984375 	0.5 	422.708
0.796875 	-0.984375 	0.5 	422.836
0.8125 	-0.984375 	0.5 	422.946
0.828125 	-0.984375 	0.5 	423.059
0.84375 	-0.984375 	0.5 	423.202
0.859375 	-0.984375 	0.5 	423.385
0.875 	-0.984375 	0.5 	423.42
0.890625 	-0.984375 	0.5 	423.57
0.90625 	-0.984375 	0.5 	423.596
0.921875 	-0.984375 	0.5 	423.697
0.9375 	-0.984375 	0.5 	423.819
0.953125 	-0.984375 	0.5 	423.928
0.96875 	-0.984375 	0.5 	424.006
0.984375 	-0.984375 	0.5 	424.095
1 	-0.984375 	0.5 	424.079
1.01562 	-0.984375 	0.5 	424.151
1.03125 	-0.984375 	0.5 	424.276
1.04688 	-0.984375 	0.5 	424.343
1.0625 	-0.984375 	0.5 	424.365
1.07812 	-0.984375 	0.5 	424.404
1.09375 	-0.984375 	0.5 	424.436
1.10938 	-0.984375 	0.5 	424.461
1.125 	-0.984375 	0.5 	424.468
1.14062 	-0.984375 	0.5 	424.519
1.15625 	-0.984375 	0.5 	424.462
1.17188 	-0.984375 	0.5 	424.449
1.1875 	-0.984375 	0.5 	424.451
1.20312 	-0.984375 	0.5 	424.456
1.21875 	-0.984375 	0.5 	424.403
1.23438 	-0.984375 	0.5 	424.373
1.25 	-0.984375 	0.5 	424.338
1.26562 	-0.984375 	0.5 	424.273
1.28125 	-0.984375 	0.5 	424.181
1.29688 	-0.984375 	0.5 	424.167
1.3125 	-0.984375 	0.5 	424.034
1.32812 	-0.984375 	0.5 	423.979
1.34375 	-0.984375 	0.5 	423.915
1.35938 	-0.984375 	0.5 	423.835
1.375 	-0.984375 	0.5 	423.731
1.39062 	-0.984375 	0.5 	423.628
1.40625 	-0.984375 	0.5 	423.524
1.42188 	-0.984375 	0.5 	423.421
1.4375 	-0.984375 	0.5 	423.298
1.45312 	-0.984375 	0.5 	423.176
1.46875 	-0.984375 	0.5 	423.058
1.48438 	-0.984375 	0.5 	422.931
-0.5 	-0.96875 	0.5 	426.468
-0.484375 	-0.96875 	0.5 	426.442
-0.46875 	-0.96875 	0.5 	426.396
-0.453125 	-0.96875 	0.5 	426.454
-0.4375 	-0.96875 	0.5 	426.486
-0.421875 	-0.96875 	0.5 	426.513
-0.40625 	-0.96875 	0.5 	426.501
-0.390625 	-0.96875 	0.5 	426.46
-0.375 	-0.96875 	0.5 	426.42
-0.359375 	-0.96875 	0.5 	426.401
-0.34375 	-0.96875 	0.5 	426.365
-0.328125 	-0.96875 	0.5 	426.335
-0.3125 	-0.96875 	0.5 	426.223
-0.296875 	-0.96875 	0.5 	426.167
-0.28125 	-0.96875 	0.5 	426.054
-0.265625 	-0.96875 	0.5 	425.948
-0.25 	-0.96875 	0.5 	425.836
-0.234375 	-0.96875 	0.5 	425.791
-0.21875 	-0.96875 	0.5 	425.755
-0.203125 	-0.96875 	0.5 	425.568
-0.1875 	-0.96875 	0.5 	425.433
-0.171875 	-0.96875 	0.5 	425.25
-0.15625 	-0.96875 	0.5 	425.097
-0.140625 	-0.96875 	0.5 	424.957
-0.125 	-0.96875 	0.5 	424.781
-0.109375 	-0.96875 	0.5 	424.601
-0.09375 	-0.96875 	0.5 	424.425
-0.078125 	-0.96875 	0.5 	424.263
-0.0625 	-0.96875 	0.5 	424.096
-0.046875 	-0.96875 	0.5 	423.926
-0.03125 	-0.96875 	0.5 	423.738
-0.015625 	-0.96875 	0.5 	423.569
0 	-0.96875 	0.5 	423.383
0.015625 	-0.96875 	0.5 	423.195
0.03125 	-0.96875 	0.5 	423.004
0.046875 	-0.96875 	0.5 	422.796
0.0625 	-0.96875 	0.5 	422.587
0.078125 	-0.96875 	0.5 	422.437
0.09375 	-0.96875 	0.5 	422.331
0.109375 	-0.96875 	0.5 	422.158
0.125 	-0.96875 	0.5 	421.985
0.140625 	-0.96875 	0.5 	421.823
0.15625 	-0.96875 	0.5 	421.669
0.171875 	-0.96875 	0.5 	421.515
0.1875 	-0.96875 	0.5 	421.384
0.203125 	-0.96875 	0.5 	421.269
0.21875 	-0.96875 	0.5 	421.163
0.234375 	-0.96875 	0.5 	421.041
0.25 	-0.96875 	0.5 	420.93
0.265625 	-0.96875 	0.5 	420.82
0.28125 	-0.96875 	0.5 	420.732
0.296875 	-0.96875 	0.5 	420.692
0.3125 	-0.96875 	0.5 	420.642
0.328125 	-0.96875 	0.5 	420.61
0.34375 	-0.96875 	0.5 	420.548
0.359375 	-0.96875 	0.5 	420.524
0.375 	-0.96875 	0.5 	420.488
0.390625 	-0.96875 	0.5 	420.489
0.40625 	-0.96875 	0.5 	420.498
0.421875 	-0.96875 	0.5 	420.51
0.4375 	-0.96875 	0.5 	420.564
0.453125 	-0.96875 	0.5 	420.592
0.46875 	-0.96875 	0.5 	420.626
0.484375 	-0.96875 	0.5 	420.664
0.5 	-0.96875 	0.5 	420.724
0.515625 	-0.96875 	0.5 	420.789
0.53125 	-0.96875 	0.5 	420.862
0.546875 	-0.96875 	0.5 	420.936
0.5625 	-0.96875 	0.5 	421.045
0.578125 	-0.96875 	0.5 	421.138
0.59375 	-0.96875 	0.5 	421.249
0.609375 	-0.96875 	0.5 	421.354
0.625 	-0.96875 	0.5 	421.48
0.640625 	-0.96875 	0.5 	421.607
0.65625 	-0.96875 	0.5 	421.734
0.671875 	-0.96875 	0.5 	421.856
0.6875 	-0.96875 	0.5 	421.956
0.703125 	-0.96875 	0.5 	422.087
0.71875 	-0.96875 	0.5 	422.19
0.734375 	-0.96875 	0.5 	422.31
0.75 	-0.96875 	0.5 	422.482
0.765625 	-0.96875 	0.5 	422.638
0.78125 	-0.96875 	0.5 	422.785
0.796875 	-0.96875 	0.5 	422.931
0.8125 	-0.96875 	0.5 	423.039
0.828125 	-0.96875 	0.5 	423.137
0.84375 	-0.96875 	0.5 	423.285
0.859375 	-0.96875 	0.5 	423.462
0.875 	-0.96875 	0.5 	423.573
0.890625 	-0.96875 	0.5 	423.712
0.90625 	-0.96875 	0.5 	423.801
0.921875 	-0.96875 	0.5 	423.883
0.9375 	-0.96875 	0.5 	423.96
0.953125 	-0.96875 	0.5 	424.096
0.96875 	-0.96875 	0.5 	424.201
0.984375 	-0.96875 	0.5 	424.267
1 	-0.96875 	0.5 	424.328
1.01562 	-0.96875 	0.5 	424.399
1.03125 	-0.96875 	0.5 	424.472
1.04688 	-0.96875 	0.5 	424.514
1.0625 	-0.96875 	0.5 	424.54
1.07812 	-0.96875 	0.5 	424.574
1.09375 	-0.96875 	0.5 	424.608
1.10938 	-0.96875 	0.5 	424.643
1.125 	-0.96875 	0.5 	424.672
1.14062 	-0.96875 	0.5 	424.677
1.15625 	-0.96875 	0.5 	424.683
1.17188 	-0.96875 	0.5 	424.686
1.1875 	-0.96875 	0.5 	424.681
1.20312 	-0.96875 	0.5 	424.73
1.21875 	-0.96875 	0.5 	424.693
1.23438 	-0.96875 	0.5 	424.61
1.25 	-0.96875 	0.5 	424.559
1.26562 	-0.96875 	0.5 	424.485
1.28125 	-0.96875 	0.5 	424.404
1.29688 	-0.96875 	0.5 	424.374
1.3125 	-0.96875 	0.5 	424.251
1.32812 	-0.96875 	0.5 	424.182
1.34375 	-0.96875 	0.5 	424.113
1.35938 	-0.96875 	0.5 	424.014
1.375 	-0.96875 	0.5 	423.907
1.39062 	-0.96875 	0.5 	423.8
1.40625 	-0.96875 	0.5 	423.7
1.42188 	-0.96875 	0.5 	423.6
1.4375 	-0.96875 	0.5 	423.489
1.45312 	-0.96875 	0.5 	423.373
1.46875 	-0.96875 	0.5 	423.244
1.48438 	-0.96875 	0.5 	423.098
-0.5 	-0.953125 	0.5 	426.657
-0.484375 	-0.953125 	0.5 	426.715
-0.46875 	-0.953125 	0.5 	426.702
-0.453125 	-0.953125 	0.5 	426.744
-0.4375 	-0.953125 	0.5 	426.774
-0.421875 	-0.953125 	0.5 	426.8
-0.40625 	-0.953125 	0.5 	426.773
-0.390625 	-0.953125 	0.5 	426.729
-0.375 	-0.953125 	0.5 	426.696
-0.359375 	-0.953125 	0.5 	426.646
-0.34375 	-0.953125 	0.5 	426.617
-0.328125 	-0.953125 	0.5 	426.588
-0.3125 	-0.953125 	0.5 	426.526
-0.296875 	-0.953125 	0.5 	426.41
-0.28125 	-0.953125 	0.5 	426.298
-0.265625 	-0.953125 	0.5 	426.194
-0.25 	-0.953125 	0.5 	426.091
-0.234375 	-0.953125 	0.5 	426.025
-0.21875 	-0.953125 	0.5 	425.9
-0.203125 	-0.953125 	0.5 	425.776
-0.1875 	-0.953125 	0.5 	425.635
-0.171875 	-0.953125 	0.5 	425.465
-0.15625 	-0.953125 	0.5 	425.317
-0.140625 	-0.953125 	0.5 	425.121
-0.125 	-0.953125 	0.5 	424.947
-0.109375 	-0.953125 	0.5 	424.774
-0.09375 	-0.953125 	0.5 	424.592
-0.078125 	-0.953125 	0.5 	424.38
-0.0625 	-0.953125 	0.5 	424.22
-0.046875 	-0.953125 	0.5 	424.035
-0.03125 	-0.953125 	0.5 	423.85
-0.015625 	-0.953125 	0.5 	423.648
0 	-0.953125 	0.5 	423.438
0.015625 	-0.953125 	0.5 	423.232
0.03125 	-0.953125 	0.5 	423.056
0.046875 	-0.953125 	0.5 	422.872
0.0625 	-0.953125 	0.5 	422.669
0.078125 	-0.953125 	0.5 	422.46
0.09375 	-0.953125 	0.5 	422.312
0.109375 	-0.953125 	0.5 	422.154
0.125 	-0.953125 	0.5 	421.965
0.140625 	-0.953125 	0.5 	421.783
0.15625 	-0.953125 	0.5 	421.627
0.171875 	-0.953125 	0.5 	421.473
0.1875 	-0.953125 	0.5 	421.327
0.203125 	-0.953125 	0.5 	421.231
0.21875 	-0.953125 	0.5 	421.096
0.234375 	-0.953125 	0.5 	420.958
0.25 	-0.953125 	0.5 	420.809
0.265625 	-0.953125 	0.5 	420.704
0.28125 	-0.953125 	0.5 	420.639
0.296875 	-0.953125 	0.5 	420.601
0.3125 	-0.953125 	0.5 	420.593
0.328125 	-0.953125 	0.5 	420.474
0.34375 	-0.953125 	0.5 	420.462
0.359375 	-0.953125 	0.5 	420.433
0.375 	-0.953125 	0.5 	420.408
0.390625 	-0.953125 	0.5 	420.395
0.40625 	-0.953125 	0.5 	420.406
0.421875 	-0.953125 	0.5 	420.4
0.4375 	-0.953125 	0.5 	420.439
0.453125 	-0.953125 	0.5 	420.507
0.46875 	-0.953125 	0.5 	420.539
0.484375 	-0.953125 	0.5 	420.611
0.5 	-0.953125 	0.5 	420.668
0.515625 	-0.953125 	0.5 	420.724
0.53125 	-0.953125 	0.5 	420.797
0.546875 	-0.953125 	0.5 	420.892
0.5625 	-0.953125 	0.5 	421.008
0.578125 	-0.953125 	0.5 	421.107
0.59375 	-0.953125 	0.5 	421.214
0.609375 	-0.953125 	0.5 	421.332
0.625 	-0.953125 	0.5 	421.468
0.640625 	-0.953125 	0.5 	421.598
0.65625 	-0.953125 	0.5 	421.724
0.671875 	-0.953125 	0.5 	421.884
0.6875 	-0.953125 	0.5 	422.01
0.703125 	-0.953125 	0.5 	422.104
0.71875 	-0.953125 	0.5 	422.195
0.734375 	-0.953125 	0.5 	422.371
0.75 	-0.953125 	0.5 	422.535
0.765625 	-0.953125 	0.5 	422.71
0.78125 	-0.953125 	0.5 	422.859
0.796875 	-0.953125 	0.5 	423.002
0.8125 	-0.953125 	0.5 	423.148
0.828125 	-0.953125 	0.5 	423.279
0.84375 	-0.953125 	0.5 	423.414
0.859375 	-0.953125 	0.5 	423.547
0.875 	-0.953125 	0.5 	423.667
0.890625 	-0.953125 	0.5 	423.781
0.90625 	-0.953125 	0.5 	423.933
0.921875 	-0.953125 	0.5 	424.039
0.9375 	-0.953125 	0.5 	424.119
0.953125 	-0.953125 	0.5 	424.231
0.96875 	-0.953125 	0.5 	424.331
0.984375 	-0.953125 	0.5 	424.456
1 	-0.953125 	0.5 	424.599
1.01562 	-0.953125 	0.5 	424.686
1.03125 	-0.953125 	0.5 	424.664
1.04688 	-0.953125 	0.5 	424.732
1.0625 	-0.953125 	0.5 	424.755
1.07812 	-0.953125 	0.5 	424.782
1.09375 	-0.953125 	0.5 	424.818
1.10938 	-0.953125 	0.5 	424.878
1.125 	-0.953125 	0.5 	424.907
1.14062 	-0.953125 	0.5 	424.906
1.15625 	-0.953125 	0.5 	424.91
1.17188 	-0.953125 	0.5 	424.916
1.1875 	-0.953125 	0.5 	424.918
1.20312 	-0.953125 	0.5 	424.929
1.21875 	-0.953125 	0.5 	424.854
1.23438 	-0.953125 	0.5 	424.839
1.25 	-0.953125 	0.5 	424.783
1.26562 	-0.953125 	0.5 	424.71
1.28125 	-0.953125 	0.5 	424.643
1.29688 	-0.953125 	0.5 	424.579
1.3125 	-0.953125 	0.5 	424.496
1.32812 	-0.953125 	0.5 	424.424
1.34375 	-0.953125 	0.5 	424.348
1.35938 	-0.953125 	0.5 	424.206
1.375 	-0.953125 	0.5 	424.097
1.39062 	-0.953125 	0.5 	423.965
1.40625 	-0.953125 	0.5 	423.916
1.42188 	-0.953125 	0.5 	423.816
1.4375 	-0.953125 	0.5 	423.661
1.45312 	-0.953125 	0.5 	423.554
1.46875 	-0.953125 	0.5 	423.419
1.48438 	-0.953125 	0.5 	423.265
-0.5 	-0.9375 	0.5 	426.975
-0.484375 	-0.9375 	0.5 	426.971
-0.46875 	-0.9375 	0.5 	426.983
-0.453125 	-0.9375 	0.5 	426.982
-0.4375 	-0.9375 	0.5 	426.996
-0.421875 	-0.9375 	0.5 	427.081
-0.40625 	-0.9375 	0.5 	427.065
-0.390625 	-0.9375 	0.5 	427.018
-0.375 	-0.9375 	0.5 	426.981
-0.359375 	-0.9375 	0.5 	426.927
-0.34375 	-0.9375 	0.5 	426.878
-0.328125 	-0.9375 	0.5 	426.819
-0.3125 	-0.9375 	0.5 	426.739
-0.296875 	-0.9375 	0.5 	426.66
-0.28125 	-0.9375 	0.5 	426.61
-0.265625 	-0.9375 	0.5 	426.585
-0.25 	-0.9375 	0.5 	426.41
-0.234375 	-0.9375 	0.5 	426.269
-0.21875 	-0.9375 	0.5 	426.138
-0.203125 	-0.9375 	0.5 	425.986
-0.1875 	-0.9375 	0.5 	425.834
-0.171875 	-0.9375 	0.5 	425.676
-0.15625 	-0.9375 	0.5 	425.49
-0.140625 	-0.9375 	0.5 	425.304
-0.125 	-0.9375 	0.5 	425.117
-0.109375 	-0.9375 	0.5 	424.94
-0.09375 	-0.9375 	0.5 	424.764
-0.078125 	-0.9375 	0.5 	424.535
-0.0625 	-0.9375 	0.5 	424.343
-0.046875 	-0.9375 	0.5 	424.157
-0.03125 	-0.9375 	0.5 	423.966
-0.015625 	-0.9375 	0.5 	423.732
0 	-0.9375 	0.5 	423.503
0.015625 	-0.9375 	0.5 	423.286
0.03125 	-0.9375 	0.5 	423.105
0.046875 	-0.9375 	0.5 	422.9
0.0625 	-0.9375 	0.5 	422.659
0.078125 	-0.9375 	0.5 	422.452
0.09375 	-0.9375 	0.5 	422.275
0.109375 	-0.9375 	0.5 	422.132
0.125 	-0.9375 	0.5 	421.938
0.140625 	-0.9375 	0.5 	421.755
0.15625 	-0.9375 	0.5 	421.585
0.171875 	-0.9375 	0.5 	421.434
0.1875 	-0.9375 	0.5 	421.287
0.203125 	-0.9375 	0.5 	421.147
0.21875 	-0.9375 	0.5 	420.989
0.234375 	-0.9375 	0.5 	420.863
0.25 	-0.9375 	0.5 	420.697
0.265625 	-0.9375 	0.5 	420.65
0.28125 	-0.9375 	0.5 	420.538
0.296875 	-0.9375 	0.5 	420.482
0.3125 	-0.9375 	0.5 	420.417
0.328125 	-0.9375 	0.5 	420.384
0.34375 	-0.9375 	0.5 	420.376
0.359375 	-0.9375 	0.5 	420.321
0.375 	-0.9375 	0.5 	420.298
0.390625 	-0.9375 	0.5 	420.293
0.40625 	-0.9375 	0.5 	420.298
0.421875 	-0.9375 	0.5 	420.287
0.4375 	-0.9375 	0.5 	420.33
0.453125 	-0.9375 	0.5 	420.402
0.46875 	-0.9375 	0.5 	420.441
0.484375 	-0.9375 	0.5 	420.517
0.5 	-0.9375 	0.5 	420.593
0.515625 	-0.9375 	0.5 	420.658
0.53125 	-0.9375 	0.5 	420.763
0.546875 	-0.9375 	0.5 	420.868
0.5625 	-0.9375 	0.5 	420.974
0.578125 	-0.9375 	0.5 	421.077
0.59375 	-0.9375 	0.5 	421.187
0.609375 	-0.9375 	0.5 	421.3
0.625 	-0.9375 	0.5 	421.446
0.640625 	-0.9375 	0.5 	421.59
0.65625 	-0.9375 	0.5 	421.76
0.671875 	-0.9375 	0.5 	421.916
0.6875 	-0.9375 	0.5 	422.035
0.703125 	-0.9375 	0.5 	422.174
0.71875 	-0.9375 	0.5 	422.299
0.734375 	-0.9375 	0.5 	422.429
0.75 	-0.9375 	0.5 	422.599
0.765625 	-0.9375 	0.5 	422.775
0.78125 	-0.9375 	0.5 	422.93
0.796875 	-0.9375 	0.5 	423.065
0.8125 	-0.9375 	0.5 	423.252
0.828125 	-0.9375 	0.5 	423.367
0.84375 	-0.9375 	0.5 	423.511
0.859375 	-0.9375 	0.5 	423.677
0.875 	-0.9375 	0.5 	423.8
0.890625 	-0.9375 	0.5 	423.92
0.90625 	-0.9375 	0.5 	424.056
0.921875 	-0.9375 	0.5 	424.166
0.9375 	-0.9375 	0.5 	424.268
0.953125 	-0.9375 	0.5 	424.367
0.96875 	-0.9375 	0.5 	424.492
0.984375 	-0.9375 	0.5 	424.631
1 	-0.9375 	0.5 	424.778
1.01562 	-0.9375 	0.5 	424.832
1.03125 	-0.9375 	0.5 	424.892
1.04688 	-0.9375 	0.5 	424.944
1.0625 	-0.9375 	0.5 	424.916
1.07812 	-0.9375 	0.5 	424.997
1.09375 	-0.9375 	0.5 	425.071
1.10938 	-0.9375 	0.5 	425.131
1.125 	-0.9375 	0.5 	425.144
1.14062 	-0.9375 	0.5 	425.141
1.15625 	-0.9375 	0.5 	425.141
1.17188 	-0.9375 	0.5 	425.142
1.1875 	-0.9375 	0.5 	425.155
1.20312 	-0.9375 	0.5 	425.116
1.21875 	-0.9375 	0.5 	425.101
1.23438 	-0.9375 	0.5 	425.064
1.25 	-0.9375 	0.5 	425.008
1.26562 	-0.9375 	0.5 	424.935
1.28125 	-0.9375 	0.5 	424.868
1.29688 	-0.9375 	0.5 	424.811
1.3125 	-0.9375 	0.5 	424.728
1.32812 	-0.9375 	0.5 	424.658
1.34375 	-0.9375 	0.5 	424.579
1.35938 	-0.9375 	0.5 	424.394
1.375 	-0.9375 	0.5 	424.326
1.39062 	-0.9375 	0.5 	424.188
1.40625 	-0.9375 	0.5 	424.129
1.42188 	-0.9375 	0.5 	424.027
1.4375 	-0.9375 	0.5 	423.863
1.45312 	-0.9375 	0.5 	423.727
1.46875 	-0.9375 	0.5 	423.587
1.48438 	-0.9375 	0.5 	423.433
-0.5 	-0.921875 	0.5 	427.189
-0.484375 	-0.921875 	0.5 	427.257
-0.46875 	-0.921875 	0.5 	427.257
-0.453125 	-0.921875 	0.5 	427.302
-0.4375 	-0.921875 	0.5 	427.319
-0.421875 	-0.921875 	0.5 	427.366
-0.40625 	-0.921875 	0.5 	427.339
-0.390625 	-0.921875 	0.5 	427.303
-0.375 	-0.921875 	0.5 	427.268
-0.359375 	-0.921875 	0.5 	427.213
-0.34375 	-0.921875 	0.5 	427.159
-0.328125 	-0.921875 	0.5 	427.109
-0.3125 	-0.921875 	0.5 	427.03
-0.296875 	-0.921875 	0.5 	426.932
-0.28125 	-0.921875 	0.5 	426.854
-0.265625 	-0.921875 	0.5 	426.795
-0.25 	-0.921875 	0.5 	426.719
-0.234375 	-0.921875 	0.5 	426.58
-0.21875 	-0.921875 	0.5 	426.374
-0.203125 	-0.921875 	0.5 	426.23
-0.1875 	-0.921875 	0.5 	426.085
-0.171875 	-0.921875 	0.5 	425.881
-0.15625 	-0.921875 	0.5 	425.657
-0.140625 	-0.921875 	0.5 	425.387
-0.125 	-0.921875 	0.5 	425.276
-0.109375 	-0.921875 	0.5 	425.1
-0.09375 	-0.921875 	0.5 	424.903
-0.078125 	-0.921875 	0.5 	424.656
-0.0625 	-0.921875 	0.5 	424.455
-0.046875 	-0.921875 	0.5 	424.269
-0.03125 	-0.921875 	0.5 	424.065
-0.015625 	-0.921875 	0.5 	423.821
0 	-0.921875 	0.5 	423.588
0.015625 	-0.921875 	0.5 	423.365
0.03125 	-0.921875 	0.5 	423.122
0.046875 	-0.921875 	0.5 	422.879
0.0625 	-0.921875 	0.5 	422.662
0.078125 	-0.921875 	0.5 	422.453
0.09375 	-0.921875 	0.5 	422.253
0.109375 	-0.921875 	0.5 	422.089
0.125 	-0.921875 	0.5 	421.918
0.140625 	-0.921875 	0.5 	421.743
0.15625 	-0.921875 	0.5 	421.534
0.171875 	-0.921875 	0.5 	421.353
0.1875 	-0.921875 	0.5 	421.204
0.203125 	-0.921875 	0.5 	421.065
0.21875 	-0.921875 	0.5 	420.929
0.234375 	-0.921875 	0.5 	420.776
0.25 	-0.921875 	0.5 	420.652
0.265625 	-0.921875 	0.5 	420.554
0.28125 	-0.921875 	0.5 	420.442
0.296875 	-0.921875 	0.5 	420.387
0.3125 	-0.921875 	0.5 	420.3
0.328125 	-0.921875 	0.5 	420.245
0.34375 	-0.921875 	0.5 	420.234
0.359375 	-0.921875 	0.5 	420.22
0.375 	-0.921875 	0.5 	420.202
0.390625 	-0.921875 	0.5 	420.195
0.40625 	-0.921875 	0.5 	420.184
0.421875 	-0.921875 	0.5 	420.211
0.4375 	-0.921875 	0.5 	420.247
0.453125 	-0.921875 	0.5 	420.281
0.46875 	-0.921875 	0.5 	420.319
0.484375 	-0.921875 	0.5 	420.389
0.5 	-0.921875 	0.5 	420.48
0.515625 	-0.921875 	0.5 	420.583
0.53125 	-0.921875 	0.5 	420.671
0.546875 	-0.921875 	0.5 	420.774
0.5625 	-0.921875 	0.5 	420.909
0.578125 	-0.921875 	0.5 	421.037
0.59375 	-0.921875 	0.5 	421.194
0.609375 	-0.921875 	0.5 	421.305
0.625 	-0.921875 	0.5 	421.403
0.640625 	-0.921875 	0.5 	421.565
0.65625 	-0.921875 	0.5 	421.71
0.671875 	-0.921875 	0.5 	421.948
0.6875 	-0.921875 	0.5 	422.051
0.703125 	-0.921875 	0.5 	422.195
0.71875 	-0.921875 	0.5 	422.317
0.734375 	-0.921875 	0.5 	422.488
0.75 	-0.921875 	0.5 	422.675
0.765625 	-0.921875 	0.5 	422.842
0.78125 	-0.921875 	0.5 	423.016
0.796875 	-0.921875 	0.5 	423.173
0.8125 	-0.921875 	0.5 	423.326
0.828125 	-0.921875 	0.5 	423.478
0.84375 	-0.921875 	0.5 	423.652
0.859375 	-0.921875 	0.5 	423.81
0.875 	-0.921875 	0.5 	423.93
0.890625 	-0.921875 	0.5 	424.055
0.90625 	-0.921875 	0.5 	424.192
0.921875 	-0.921875 	0.5 	424.317
0.9375 	-0.921875 	0.5 	424.467
0.953125 	-0.921875 	0.5 	424.572
0.96875 	-0.921875 	0.5 	424.702
0.984375 	-0.921875 	0.5 	424.816
1 	-0.921875 	0.5 	424.958
1.01562 	-0.921875 	0.5 	425.023
1.03125 	-0.921875 	0.5 	425.106
1.04688 	-0.921875 	0.5 	425.156
1.0625 	-0.921875 	0.5 	425.151
1.07812 	-0.921875 	0.5 	425.246
1.09375 	-0.921875 	0.5 	425.319
1.10938 	-0.921875 	0.5 	425.36
1.125 	-0.921875 	0.5 	425.38
1.14062 	-0.921875 	0.5 	425.379
1.15625 	-0.921875 	0.5 	425.379
1.17188 	-0.921875 	0.5 	425.387
1.1875 	-0.921875 	0.5 	425.371
1.20312 	-0.921875 	0.5 	425.326
1.21875 	-0.921875 	0.5 	425.304
1.23438 	-0.921875 	0.5 	425.279
1.25 	-0.921875 	0.5 	425.232
1.26562 	-0.921875 	0.5 	425.172
1.28125 	-0.921875 	0.5 	425.117
1.29688 	-0.921875 	0.5 	425.056
1.3125 	-0.921875 	0.5 	424.979
1.32812 	-0.921875 	0.5 	424.888
1.34375 	-0.921875 	0.5 	424.802
1.35938 	-0.921875 	0.5 	424.633
1.375 	-0.921875 	0.5 	424.496
1.39062 	-0.921875 	0.5 	424.424
1.40625 	-0.921875 	0.5 	424.332
1.42188 	-0.921875 	0.5 	424.2
1.4375 	-0.921875 	0.5 	424.054
1.45312 	-0.921875 	0.5 	423.908
1.46875 	-0.921875 	0.5 	423.756
1.48438 	-0.921875 	0.5 	423.602
-0.5 	-0.90625 	0.5 	427.507
-0.484375 	-0.90625 	0.5 	427.56
-0.46875 	-0.90625 	0.5 	427.549
-0.453125 	-0.90625 	0.5 	427.585
-0.4375 	-0.90625 	0.5 	427.636
-0.421875 	-0.90625 	0.5 	427.647
-0.40625 	-0.90625 	0.5 	427.593
-0.390625 	-0.90625 	0.5 	427.558
-0.375 	-0.90625 	0.5 	427.588
-0.359375 	-0.90625 	0.5 	427.526
-0.34375 	-0.90625 	0.5 	427.444
-0.328125 	-0.90625 	0.5 	427.392
-0.3125 	-0.90625 	0.5 	427.323
-0.296875 	-0.90625 	0.5 	427.227
-0.28125 	-0.90625 	0.5 	427.131
-0.265625 	-0.90625 	0.5 	427.009
-0.25 	-0.90625 	0.5 	426.874
-0.234375 	-0.90625 	0.5 	426.739
-0.21875 	-0.90625 	0.5 	426.609
-0.203125 	-0.90625 	0.5 	426.485
-0.1875 	-0.90625 	0.5 	426.359
-0.171875 	-0.90625 	0.5 	426.081
-0.15625 	-0.90625 	0.5 	425.774
-0.140625 	-0.90625 	0.5 	425.621
-0.125 	-0.90625 	0.5 	425.48
-0.109375 	-0.90625 	0.5 	425.294
-0.09375 	-0.90625 	0.5 	425.091
-0.078125 	-0.90625 	0.5 	424.838
-0.0625 	-0.90625 	0.5 	424.56
-0.046875 	-0.90625 	0.5 	424.299
-0.03125 	-0.90625 	0.5 	424.107
-0.015625 	-0.90625 	0.5 	423.908
0 	-0.90625 	0.5 	423.659
0.015625 	-0.90625 	0.5 	423.421
0.03125 	-0.90625 	0.5 	423.165
0.046875 	-0.90625 	0.5 	422.907
0.0625 	-0.90625 	0.5 	422.67
0.078125 	-0.90625 	0.5 	422.46
0.09375 	-0.90625 	0.5 	422.292
0.109375 	-0.90625 	0.5 	422.105
0.125 	-0.90625 	0.5 	421.846
0.140625 	-0.90625 	0.5 	421.662
0.15625 	-0.90625 	0.5 	421.466
0.171875 	-0.90625 	0.5 	421.306
0.1875 	-0.90625 	0.5 	421.114
0.203125 	-0.90625 	0.5 	420.984
0.21875 	-0.90625 	0.5 	420.842
0.234375 	-0.90625 	0.5 	420.7
0.25 	-0.90625 	0.5 	420.558
0.265625 	-0.90625 	0.5 	420.458
0.28125 	-0.90625 	0.5 	420.346
0.296875 	-0.90625 	0.5 	420.268
0.3125 	-0.90625 	0.5 	420.2
0.328125 	-0.90625 	0.5 	420.117
0.34375 	-0.90625 	0.5 	420.087
0.359375 	-0.90625 	0.5 	420.074
0.375 	-0.90625 	0.5 	420.055
0.390625 	-0.90625 	0.5 	420.051
0.40625 	-0.90625 	0.5 	420.056
0.421875 	-0.90625 	0.5 	420.085
0.4375 	-0.90625 	0.5 	420.123
0.453125 	-0.90625 	0.5 	420.157
0.46875 	-0.90625 	0.5 	420.202
0.484375 	-0.90625 	0.5 	420.293
0.5 	-0.90625 	0.5 	420.382
0.515625 	-0.90625 	0.5 	420.488
0.53125 	-0.90625 	0.5 	420.595
0.546875 	-0.90625 	0.5 	420.715
0.5625 	-0.90625 	0.5 	420.849
0.578125 	-0.90625 	0.5 	420.981
0.59375 	-0.90625 	0.5 	421.115
0.609375 	-0.90625 	0.5 	421.228
0.625 	-0.90625 	0.5 	421.343
0.640625 	-0.90625 	0.5 	421.506
0.65625 	-0.90625 	0.5 	421.661
0.671875 	-0.90625 	0.5 	421.849
0.6875 	-0.90625 	0.5 	422.077
0.703125 	-0.90625 	0.5 	422.201
0.71875 	-0.90625 	0.5 	422.347
0.734375 	-0.90625 	0.5 	422.53
0.75 	-0.90625 	0.5 	422.732
0.765625 	-0.90625 	0.5 	422.915
0.78125 	-0.90625 	0.5 	423.113
0.796875 	-0.90625 	0.5 	423.273
0.8125 	-0.90625 	0.5 	423.429
0.828125 	-0.90625 	0.5 	423.598
0.84375 	-0.90625 	0.5 	423.769
0.859375 	-0.90625 	0.5 	423.941
0.875 	-0.90625 	0.5 	424.074
0.890625 	-0.90625 	0.5 	424.218
0.90625 	-0.90625 	0.5 	424.37
0.921875 	-0.90625 	0.5 	424.513
0.9375 	-0.90625 	0.5 	424.688
0.953125 	-0.90625 	0.5 	424.793
0.96875 	-0.90625 	0.5 	424.93
0.984375 	-0.90625 	0.5 	425.035
1 	-0.90625 	0.5 	425.149
1.01562 	-0.90625 	0.5 	425.212
1.03125 	-0.90625 	0.5 	425.278
1.04688 	-0.90625 	0.5 	425.345
1.0625 	-0.90625 	0.5 	425.392
1.07812 	-0.90625 	0.5 	425.472
1.09375 	-0.90625 	0.5 	425.525
1.10938 	-0.90625 	0.5 	425.593
1.125 	-0.90625 	0.5 	425.632
1.14062 	-0.90625 	0.5 	425.646
1.15625 	-0.90625 	0.5 	425.659
1.17188 	-0.90625 	0.5 	425.647
1.1875 	-0.90625 	0.5 	425.647
1.20312 	-0.90625 	0.5 	425.567
1.21875 	-0.90625 	0.5 	425.506
1.23438 	-0.90625 	0.5 	425.514
1.25 	-0.90625 	0.5 	425.473
1.26562 	-0.90625 	0.5 	425.418
1.28125 	-0.90625 	0.5 	425.363
1.29688 	-0.90625 	0.5 	425.302
1.3125 	-0.90625 	0.5 	425.219
1.32812 	-0.90625 	0.5 	425.124
1.34375 	-0.90625 	0.5 	425.037
1.35938 	-0.90625 	0.5 	424.937
1.375 	-0.90625 	0.5 	424.798
1.39062 	-0.90625 	0.5 	424.659
1.40625 	-0.90625 	0.5 	424.521
1.42188 	-0.90625 	0.5 	424.389
1.4375 	-0.90625 	0.5 	424.257
1.45312 	-0.90625 	0.5 	424.1
1.46875 	-0.90625 	0.5 	423.944
1.48438 	-0.90625 	0.5 	423.76
-0.5 	-0.890625 	0.5 	427.8
-0.484375 	-0.890625 	0.5 	427.864
-0.46875 	-0.890625 	0.5 	427.884
-0.453125 	-0.890625 	0.5 	427.883
-0.4375 	-0.890625 	0.5 	427.907
-0.421875 	-0.890625 	0.5 	427.931
-0.40625 	-0.890625 	0.5 	427.92
-0.390625 	-0.890625 	0.5 	427.887
-0.375 	-0.890625 	0.5 	427.896
-0.359375 	-0.890625 	0.5 	427.866
-0.34375 	-0.890625 	0.5 	427.77
-0.328125 	-0.890625 	0.5 	427.674
-0.3125 	-0.890625 	0.5 	427.591
-0.296875 	-0.890625 	0.5 	427.508
-0.28125 	-0.890625 	0.5 	427.441
-0.265625 	-0.890625 	0.5 	427.287
-0.25 	-0.890625 	0.5 	427.116
-0.234375 	-0.890625 	0.5 	426.962
-0.21875 	-0.890625 	0.5 	426.899
-0.203125 	-0.890625 	0.5 	426.777
-0.1875 	-0.890625 	0.5 	426.651
-0.171875 	-0.890625 	0.5 	426.357
-0.15625 	-0.890625 	0.5 	426.052
-0.140625 	-0.890625 	0.5 	425.841
-0.125 	-0.890625 	0.5 	425.613
-0.109375 	-0.890625 	0.5 	425.422
-0.09375 	-0.890625 	0.5 	425.225
-0.078125 	-0.890625 	0.5 	424.905
-0.0625 	-0.890625 	0.5 	424.66
-0.046875 	-0.890625 	0.5 	424.387
-0.03125 	-0.890625 	0.5 	424.23
-0.015625 	-0.890625 	0.5 	424.037
0 	-0.890625 	0.5 	423.726
0.015625 	-0.890625 	0.5 	423.488
0.03125 	-0.890625 	0.5 	423.218
0.046875 	-0.890625 	0.5 	422.955
0.0625 	-0.890625 	0.5 	422.695
0.078125 	-0.890625 	0.5 	422.5
0.09375 	-0.890625 	0.5 	422.309
0.109375 	-0.890625 	0.5 	422.048
0.125 	-0.890625 	0.5 	421.787
0.140625 	-0.890625 	0.5 	421.589
0.15625 	-0.890625 	0.5 	421.357
0.171875 	-0.890625 	0.5 	421.176
0.1875 	-0.890625 	0.5 	421.021
0.203125 	-0.890625 	0.5 	420.867
0.21875 	-0.890625 	0.5 	420.73
0.234375 	-0.890625 	0.5 	420.57
0.25 	-0.890625 	0.5 	420.416
0.265625 	-0.890625 	0.5 	420.294
0.28125 	-0.890625 	0.5 	420.228
0.296875 	-0.890625 	0.5 	420.156
0.3125 	-0.890625 	0.5 	420.088
0.328125 	-0.890625 	0.5 	420.011
0.34375 	-0.890625 	0.5 	419.964