-0.5 	-1 	0.5 	39.8185 	-0.405184 	2.23581e-19
-0.484375 	-1 	0.5 	39.8262 	-0.4135 	1.96594e-20
-0.46875 	-1 	0.5 	39.8344 	-0.421648 	-3.66624e-22
-0.453125 	-1 	0.5 	39.8426 	-0.429365 	4.92883e-21
-0.4375 	-1 	0.5 	39.8506 	-0.437726 	4.96576e-20
-0.421875 	-1 	0.5 	39.8603 	-0.445148 	1.482e-20
-0.40625 	-1 	0.5 	39.87 	-0.452814 	-4.15231e-20
-0.390625 	-1 	0.5 	39.8791 	-0.459201 	-7.37968e-20
-0.375 	-1 	0.5 	39.8895 	-0.466737 	-3.69756e-19
-0.359375 	-1 	0.5 	39.9007 	-0.473094 	-2.37503e-19
-0.34375 	-1 	0.5 	39.9118 	-0.479427 	-9.47896e-20
-0.328125 	-1 	0.5 	39.923 	-0.484945 	6.20976e-20
-0.3125 	-1 	0.5 	39.9356 	-0.4883 	-1.16645e-19
-0.296875 	-1 	0.5 	39.9479 	-0.493194 	-2.08454e-19
-0.28125 	-1 	0.5 	39.9599 	-0.501943 	-1.5989e-21
-0.265625 	-1 	0.5 	39.974 	-0.505795 	-3.8273e-20
-0.25 	-1 	0.5 	39.9875 	-0.509343 	-2.79673e-20
-0.234375 	-1 	0.5 	39.9989 	-0.513253 	-3.70521e-20
-0.21875 	-1 	0.5 	40.0127 	-0.516994 	-1.49847e-21
-0.203125 	-1 	0.5 	40.0273 	-0.519034 	-3.55971e-22
-0.1875 	-1 	0.5 	40.0428 	-0.521562 	2.0866e-20
-0.171875 	-1 	0.5 	40.0585 	-0.524013 	3.60999e-20
-0.15625 	-1 	0.5 	40.0726 	-0.525374 	-8.28512e-20
-0.140625 	-1 	0.5 	40.087 	-0.526327 	-1.54982e-19
-0.125 	-1 	0.5 	40.1026 	-0.524994 	2.91332e-20
-0.109375 	-1 	0.5 	40.1178 	-0.523642 	7.36967e-20
-0.09375 	-1 	0.5 	40.1332 	-0.522102 	-1.2287e-19
-0.078125 	-1 	0.5 	40.1497 	-0.520815 	-1.32449e-19
-0.0625 	-1 	0.5 	40.164 	-0.516952 	-1.57021e-19
-0.046875 	-1 	0.5 	40.1794 	-0.512883 	-3.64745e-20
-0.03125 	-1 	0.5 	40.1939 	-0.509572 	2.2053e-20
-0.015625 	-1 	0.5 	40.2091 	-0.504655 	5.30242e-21
0 	-1 	0.5 	40.2249 	-0.499792 	-4.91328e-21
0.015625 	-1 	0.5 	40.2402 	-0.494333 	-1.83679e-19
0.03125 	-1 	0.5 	40.2544 	-0.486927 	-2.81284e-19
0.046875 	-1 	0.5 	40.2695 	-0.47948 	4.21852e-20
0.0625 	-1 	0.5 	40.2844 	-0.470702 	2.96958e-20
0.078125 	-1 	0.5 	40.2984 	-0.461832 	-6.5593e-20
0.09375 	-1 	0.5 	40.312 	-0.453178 	-1.94828e-20
0.109375 	-1 	0.5 	40.3244 	-0.442676 	-6.07289e-20
0.125 	-1 	0.5 	40.3371 	-0.432136 	2.46735e-20
0.140625 	-1 	0.5 	40.3505 	-0.421278 	-1.62632e-20
0.15625 	-1 	0.5 	40.3634 	-0.411372 	-1.07143e-19
0.171875 	-1 	0.5 	40.3744 	-0.399858 	-1.66605e-20
0.1875 	-1 	0.5 	40.3856 	-0.385665 	8.34575e-22
0.203125 	-1 	0.5 	40.3952 	-0.372365 	2.29898e-20
0.21875 	-1 	0.5 	40.4045 	-0.35909 	3.23801e-20
0.234375 	-1 	0.5 	40.4139 	-0.345584 	6.90953e-20
0.25 	-1 	0.5 	40.4234 	-0.332119 	2.60265e-20
0.265625 	-1 	0.5 	40.4315 	-0.316115 	-4.38933e-20
0.28125 	-1 	0.5 	40.439 	-0.301178 	3.91463e-20
0.296875 	-1 	0.5 	40.4454 	-0.285878 	5.23613e-20
0.3125 	-1 	0.5 	40.4511 	-0.270826 	-1.48238e-20
0.328125 	-1 	0.5 	40.4569 	-0.254499 	-9.80942e-20
0.34375 	-1 	0.5 	40.461 	-0.238826 	1.17706e-20
0.359375 	-1 	0.5 	40.4654 	-0.223668 	5.30337e-20
0.375 	-1 	0.5 	40.4675 	-0.206149 	4.9087e-21
0.390625 	-1 	0.5 	40.4705 	-0.190219 	2.40586e-21
0.40625 	-1 	0.5 	40.4723 	-0.174577 	-4.03414e-21
0.421875 	-1 	0.5 	40.4739 	-0.15898 	-2.77496e-21
0.4375 	-1 	0.5 	40.4728 	-0.143796 	-6.70579e-21
0.453125 	-1 	0.5 	40.4719 	-0.1284 	-9.17991e-21
0.46875 	-1 	0.5 	40.4717 	-0.111817 	-1.84157e-21
0.484375 	-1 	0.5 	40.4712 	-0.0971153 	8.97939e-21
0.5 	-1 	0.5 	40.4667 	-0.0806297 	2.47338e-20
0.515625 	-1 	0.5 	40.4638 	-0.0680773 	1.42832e-21
0.53125 	-1 	0.5 	40.4616 	-0.0530915 	-1.31405e-21
0.546875 	-1 	0.5 	40.4588 	-0.0379878 	3.08797e-20
0.5625 	-1 	0.5 	40.4553 	-0.0238628 	8.34973e-20
0.578125 	-1 	0.5 	40.4504 	-0.00819827 	-1.20377e-20
0.59375 	-1 	0.5 	40.4441 	0.00601625 	7.40643e-21
0.609375 	-1 	0.5 	40.437 	0.0182458 	2.74315e-21
0.625 	-1 	0.5 	40.4309 	0.0323355 	4.94703e-20
0.640625 	-1 	0.5 	40.4228 	0.0452932 	4.9602e-20
0.65625 	-1 	0.5 	40.4151 	0.0563172 	-3.11935e-20
0.671875 	-1 	0.5 	40.4083 	0.0670076 	-1.29431e-20
0.6875 	-1 	0.5 	40.3987 	0.0837569 	-2.91161e-19
0.703125 	-1 	0.5 	40.3903 	0.0915338 	-1.44459e-19
0.71875 	-1 	0.5 	40.3825 	0.0992581 	7.79092e-21
0.734375 	-1 	0.5 	40.3729 	0.109039 	-4.65745e-20
0.75 	-1 	0.5 	40.3632 	0.119452 	-9.95448e-20
0.765625 	-1 	0.5 	40.3538 	0.126361 	-8.93382e-20
0.78125 	-1 	0.5 	40.3441 	0.135799 	-1.12345e-19
0.796875 	-1 	0.5 	40.3344 	0.142809 	-1.25325e-20
0.8125 	-1 	0.5 	40.3245 	0.149221 	-2.98639e-20
0.828125 	-1 	0.5 	40.3159 	0.155435 	1.95172e-20
0.84375 	-1 	0.5 	40.3056 	0.161358 	6.19012e-21
0.859375 	-1 	0.5 	40.294 	0.166986 	-1.01292e-20
0.875 	-1 	0.5 	40.2822 	0.172338 	-2.41728e-20
0.890625 	-1 	0.5 	40.2723 	0.175826 	-8.36949e-20
0.90625 	-1 	0.5 	40.2628 	0.179029 	-1.36876e-19
0.921875 	-1 	0.5 	40.2532 	0.182232 	-1.90058e-19
0.9375 	-1 	0.5 	40.2431 	0.186753 	-5.31439e-20
0.953125 	-1 	0.5 	40.2327 	0.188261 	5.84773e-21
0.96875 	-1 	0.5 	40.2223 	0.190001 	4.96822e-20
0.984375 	-1 	0.5 	40.2116 	0.191868 	1.01621e-19
1 	-1 	0.5 	40.2018 	0.19257 	1.96225e-19
1.01562 	-1 	0.5 	40.1922 	0.192896 	3.14881e-19
1.03125 	-1 	0.5 	40.1828 	0.196782 	8.2127e-20
1.04688 	-1 	0.5 	40.1724 	0.198996 	-1.31395e-19
1.0625 	-1 	0.5 	40.163 	0.197666 	-7.71758e-20
1.07812 	-1 	0.5 	40.1536 	0.198886 	-1.56977e-19
1.09375 	-1 	0.5 	40.1446 	0.19954 	-2.38367e-19
1.10938 	-1 	0.5 	40.137 	0.196206 	-9.53997e-20
1.125 	-1 	0.5 	40.1296 	0.192371 	1.47374e-19
1.14062 	-1 	0.5 	40.12 	0.191305 	-6.3925e-21
1.15625 	-1 	0.5 	40.1112 	0.190757 	-2.99431e-19
1.17188 	-1 	0.5 	40.1024 	0.190684 	-3.66738e-19
1.1875 	-1 	0.5 	40.0944 	0.190039 	1.06274e-19
1.20312 	-1 	0.5 	40.0874 	0.186555 	2.26759e-19
1.21875 	-1 	0.5 	40.0804 	0.183482 	2.01207e-19
1.23438 	-1 	0.5 	40.0733 	0.18041 	1.75654e-19
1.25 	-1 	0.5 	40.0662 	0.177557 	7.215e-20
1.26562 	-1 	0.5 	40.0595 	0.175404 	4.54931e-20
1.28125 	-1 	0.5 	40.0536 	0.172409 	-2.08499e-21
1.29688 	-1 	0.5 	40.0472 	0.169148 	-1.70864e-19
1.3125 	-1 	0.5 	40.0405 	0.165904 	-3.75934e-19
1.32812 	-1 	0.5 	40.0341 	0.162667 	-4.08521e-19
1.34375 	-1 	0.5 	40.0285 	0.159226 	-1.80966e-19
1.35938 	-1 	0.5 	40.0238 	0.154807 	-2.62393e-19
1.375 	-1 	0.5 	40.0186 	0.150058 	-1.34364e-19
1.39062 	-1 	0.5 	40.0133 	0.146588 	-8.41941e-20
1.40625 	-1 	0.5 	40.0082 	0.142028 	-1.23174e-19
1.42188 	-1 	0.5 	40.0034 	0.137157 	2.41415e-19
1.4375 	-1 	0.5 	39.9984 	0.132926 	3.00854e-19
1.45312 	-1 	0.5 	39.9934 	0.128737 	3.50752e-19
1.46875 	-1 	0.5 	39.9904 	0.125632 	9.94915e-20
1.48438 	-1 	0.5 	39.9872 	0.122169 	2.53289e-19
-0.5 	-0.984375 	0.5 	39.8092 	-0.413109 	-2.36342e-19
-0.484375 	-0.984375 	0.5 	39.8168 	-0.421968 	-1.72427e-19
-0.46875 	-0.984375 	0.5 	39.8256 	-0.430482 	1.42938e-19
-0.453125 	-0.984375 	0.5 	39.8339 	-0.438687 	2.01313e-20
-0.4375 	-0.984375 	0.5 	39.842 	-0.446711 	4.41962e-20
-0.421875 	-0.984375 	0.5 	39.8519 	-0.454071 	-4.07251e-21
-0.40625 	-0.984375 	0.5 	39.8618 	-0.461743 	-6.34994e-20
-0.390625 	-0.984375 	0.5 	39.8719 	-0.469573 	-1.11994e-19
-0.375 	-0.984375 	0.5 	39.8828 	-0.475039 	1.2703e-19
-0.359375 	-0.984375 	0.5 	39.8937 	-0.481071 	2.85373e-19
-0.34375 	-0.984375 	0.5 	39.9046 	-0.489488 	2.06165e-19
-0.328125 	-0.984375 	0.5 	39.9165 	-0.497295 	5.71632e-20
-0.3125 	-0.984375 	0.5 	39.9297 	-0.503352 	2.9127e-20
-0.296875 	-0.984375 	0.5 	39.9416 	-0.510031 	5.56449e-21
-0.28125 	-0.984375 	0.5 	39.9548 	-0.514837 	-9.5285e-22
-0.265625 	-0.984375 	0.5 	39.9689 	-0.51879 	-3.96238e-20
-0.25 	-0.984375 	0.5 	39.9824 	-0.523305 	-8.10887e-20
-0.234375 	-0.984375 	0.5 	39.9959 	-0.526932 	-4.55764e-20
-0.21875 	-0.984375 	0.5 	40.0103 	-0.530604 	-3.65543e-21
-0.203125 	-0.984375 	0.5 	40.0241 	-0.533659 	-9.19261e-21
-0.1875 	-0.984375 	0.5 	40.0395 	-0.535978 	-5.78979e-21
-0.171875 	-0.984375 	0.5 	40.0551 	-0.538766 	9.18373e-21
-0.15625 	-0.984375 	0.5 	40.07 	-0.53955 	7.48713e-20
-0.140625 	-0.984375 	0.5 	40.0881 	-0.540126 	-4.65258e-20
-0.125 	-0.984375 	0.5 	40.1028 	-0.540439 	-4.5634e-20
-0.109375 	-0.984375 	0.5 	40.1181 	-0.539009 	-9.512e-20
-0.09375 	-0.984375 	0.5 	40.1337 	-0.537408 	-2.83475e-19
-0.078125 	-0.984375 	0.5 	40.1514 	-0.536739 	-1.49839e-19
-0.0625 	-0.984375 	0.5 	40.1656 	-0.533971 	-2.60508e-19
-0.046875 	-0.984375 	0.5 	40.1814 	-0.529817 	-7.94586e-20
-0.03125 	-0.984375 	0.5 	40.1985 	-0.525126 	7.89541e-20
-0.015625 	-0.984375 	0.5 	40.2138 	-0.519916 	4.25312e-21
0 	-0.984375 	0.5 	40.2303 	-0.514586 	-1.06922e-20
0.015625 	-0.984375 	0.5 	40.2464 	-0.509401 	-4.15912e-20
0.03125 	-0.984375 	0.5 	40.2621 	-0.501997 	6.82617e-20
0.046875 	-0.984375 	0.5 	40.2779 	-0.494643 	1.24079e-19
0.0625 	-0.984375 	0.5 	40.2933 	-0.486187 	1.14162e-19
0.078125 	-0.984375 	0.5 	40.3075 	-0.476352 	7.97304e-20
0.09375 	-0.984375 	0.5 	40.3215 	-0.466503 	-1.74432e-20
0.109375 	-0.984375 	0.5 	40.3347 	-0.455183 	1.00967e-19
0.125 	-0.984375 	0.5 	40.3482 	-0.445345 	7.15128e-20
0.140625 	-0.984375 	0.5 	40.3604 	-0.433954 	-6.26048e-20
0.15625 	-0.984375 	0.5 	40.3753 	-0.421533 	1.09502e-21
0.171875 	-0.984375 	0.5 	40.3872 	-0.410465 	4.66488e-21
0.1875 	-0.984375 	0.5 	40.3975 	-0.396682 	2.03397e-20
0.203125 	-0.984375 	0.5 	40.4084 	-0.382589 	7.7965e-20
0.21875 	-0.984375 	0.5 	40.4189 	-0.368941 	1.18226e-20
0.234375 	-0.984375 	0.5 	40.4292 	-0.354313 	8.53438e-21
0.25 	-0.984375 	0.5 	40.4387 	-0.340739 	-2.24577e-21
0.265625 	-0.984375 	0.5 	40.4466 	-0.324708 	-2.88841e-20
0.28125 	-0.984375 	0.5 	40.4548 	-0.308497 	7.20419e-21
0.296875 	-0.984375 	0.5 	40.4616 	-0.29142 	5.80749e-21
0.3125 	-0.984375 	0.5 	40.4678 	-0.276043 	3.36898e-20
0.328125 	-0.984375 	0.5 	40.4731 	-0.259013 	-1.42479e-19
0.34375 	-0.984375 	0.5 	40.4773 	-0.243021 	-1.47957e-19
0.359375 	-0.984375 	0.5 	40.4817 	-0.227564 	3.84955e-22
0.375 	-0.984375 	0.5 	40.4842 	-0.210717 	6.12421e-21
0.390625 	-0.984375 	0.5 	40.4864 	-0.193455 	7.6722e-21
0.40625 	-0.984375 	0.5 	40.4886 	-0.176404 	-7.6161e-21
0.421875 	-0.984375 	0.5 	40.4896 	-0.159603 	-4.27262e-22
0.4375 	-0.984375 	0.5 	40.491 	-0.143338 	2.93761e-21
0.453125 	-0.984375 	0.5 	40.4893 	-0.127228 	5.64019e-21
0.46875 	-0.984375 	0.5 	40.489 	-0.111718 	7.54179e-21
0.484375 	-0.984375 	0.5 	40.4853 	-0.0957973 	2.14874e-20
0.5 	-0.984375 	0.5 	40.4816 	-0.0781964 	2.7101e-20
0.515625 	-0.984375 	0.5 	40.4803 	-0.063668 	5.94876e-21
0.53125 	-0.984375 	0.5 	40.4774 	-0.0466811 	-3.9761e-20
0.546875 	-0.984375 	0.5 	40.4731 	-0.0309857 	-2.96156e-20
0.5625 	-0.984375 	0.5 	40.4697 	-0.0178248 	8.04519e-20
0.578125 	-0.984375 	0.5 	40.4635 	-0.00340609 	-5.17854e-20
0.59375 	-0.984375 	0.5 	40.4571 	0.0105659 	-5.19607e-20
0.609375 	-0.984375 	0.5 	40.4509 	0.0254172 	9.32389e-21
0.625 	-0.984375 	0.5 	40.4435 	0.0390494 	3.53125e-20
0.640625 	-0.984375 	0.5 	40.4356 	0.0508815 	1.76949e-20
0.65625 	-0.984375 	0.5 	40.4276 	0.0636313 	4.08998e-20
0.671875 	-0.984375 	0.5 	40.4186 	0.0759743 	5.99624e-22
0.6875 	-0.984375 	0.5 	40.4096 	0.086752 	-4.98917e-23
0.703125 	-0.984375 	0.5 	40.4008 	0.0976209 	-2.61667e-22
0.71875 	-0.984375 	0.5 	40.3923 	0.108802 	3.4814e-20
0.734375 	-0.984375 	0.5 	40.3818 	0.118101 	-5.32206e-20
0.75 	-0.984375 	0.5 	40.3717 	0.12756 	-5.98342e-20
0.765625 	-0.984375 	0.5 	40.3621 	0.137169 	-9.84982e-20
0.78125 	-0.984375 	0.5 	40.3526 	0.14503 	-9.9492e-20
0.796875 	-0.984375 	0.5 	40.3428 	0.152769 	2.35241e-20
0.8125 	-0.984375 	0.5 	40.3323 	0.159351 	4.79227e-20
0.828125 	-0.984375 	0.5 	40.3218 	0.165108 	1.40621e-20
0.84375 	-0.984375 	0.5 	40.3109 	0.170749 	1.41802e-20
0.859375 	-0.984375 	0.5 	40.2992 	0.176374 	2.67017e-20
0.875 	-0.984375 	0.5 	40.2878 	0.182804 	-1.83992e-20
0.890625 	-0.984375 	0.5 	40.2759 	0.187551 	-1.30763e-20
0.90625 	-0.984375 	0.5 	40.2674 	0.191246 	-6.91434e-21
0.921875 	-0.984375 	0.5 	40.2571 	0.194587 	-3.93455e-20
0.9375 	-0.984375 	0.5 	40.2465 	0.197089 	-5.67892e-20
0.953125 	-0.984375 	0.5 	40.2357 	0.199581 	-7.31343e-20
0.96875 	-0.984375 	0.5 	40.225 	0.201574 	-8.02736e-21
0.984375 	-0.984375 	0.5 	40.214 	0.20288 	8.16313e-20
1 	-0.984375 	0.5 	40.2036 	0.204918 	7.35615e-20
1.01562 	-0.984375 	0.5 	40.1932 	0.207247 	6.41297e-20
1.03125 	-0.984375 	0.5 	40.1833 	0.209075 	-3.90232e-20
1.04688 	-0.984375 	0.5 	40.1728 	0.209786 	-1.70277e-19
1.0625 	-0.984375 	0.5 	40.1628 	0.209535 	-2.14075e-19
1.07812 	-0.984375 	0.5 	40.1546 	0.205925 	4.73602e-20
1.09375 	-0.984375 	0.5 	40.145 	0.208234 	-1.27116e-19
1.10938 	-0.984375 	0.5 	40.1378 	0.203787 	7.85063e-20
1.125 	-0.984375 	0.5 	40.1289 	0.203605 	5.42997e-19
1.14062 	-0.984375 	0.5 	40.1192 	0.202554 	5.42047e-19
1.15625 	-0.984375 	0.5 	40.1091 	0.200731 	2.16472e-19
1.17188 	-0.984375 	0.5 	40.0997 	0.199633 	-9.06013e-20
1.1875 	-0.984375 	0.5 	40.0921 	0.197762 	1.18081e-19
1.20312 	-0.984375 	0.5 	40.0851 	0.19469 	9.25279e-20
1.21875 	-0.984375 	0.5 	40.078 	0.191617 	6.69751e-20
1.23438 	-0.984375 	0.5 	40.0708 	0.187878 	1.08559e-19
1.25 	-0.984375 	0.5 	40.0635 	0.184044 	1.59723e-19
1.26562 	-0.984375 	0.5 	40.0562 	0.18171 	2.62311e-20
1.28125 	-0.984375 	0.5 	40.0496 	0.178015 	2.72008e-20
1.29688 	-0.984375 	0.5 	40.0429 	0.17477 	-2.13159e-19
1.3125 	-0.984375 	0.5 	40.0361 	0.171526 	-4.53518e-19
1.32812 	-0.984375 	0.5 	40.0298 	0.168292 	-3.98281e-19
1.34375 	-0.984375 	0.5 	40.0241 	0.164966 	-1.08043e-19
1.35938 	-0.984375 	0.5 	40.0196 	0.160736 	-3.09533e-19
1.375 	-0.984375 	0.5 	40.0145 	0.156003 	-1.91806e-19
1.39062 	-0.984375 	0.5 	40.0093 	0.151248 	-5.96806e-20
1.40625 	-0.984375 	0.5 	40.004 	0.146571 	-2.30247e-20
1.42188 	-0.984375 	0.5 	39.9986 	0.142967 	2.2543e-20
1.4375 	-0.984375 	0.5 	39.9936 	0.138785 	7.32063e-20
1.45312 	-0.984375 	0.5 	39.9886 	0.134602 	1.2387e-19
1.46875 	-0.984375 	0.5 	39.985 	0.12941 	1.44323e-19
1.48438 	-0.984375 	0.5 	39.982 	0.125113 	1.6096e-19
-0.5 	-0.96875 	0.5 	39.7997 	-0.421377 	-2.06135e-19
-0.484375 	-0.96875 	0.5 	39.8072 	-0.430244 	-1.48171e-19
-0.46875 	-0.96875 	0.5 	39.8164 	-0.438824 	1.9187e-19
-0.453125 	-0.96875 	0.5 	39.8249 	-0.447227 	1.05544e-19
-0.4375 	-0.96875 	0.5 	39.8334 	-0.455731 	3.65461e-20
-0.421875 	-0.96875 	0.5 	39.8433 	-0.463704 	1.00823e-19
-0.40625 	-0.96875 	0.5 	39.8531 	-0.471635 	1.42789e-19
-0.390625 	-0.96875 	0.5 	39.8639 	-0.478996 	-4.20975e-19
-0.375 	-0.96875 	0.5 	39.8752 	-0.488181 	1.1855e-19
-0.359375 	-0.96875 	0.5 	39.886 	-0.4927 	4.27587e-19
-0.34375 	-0.96875 	0.5 	39.898 	-0.501949 	1.35582e-19
-0.328125 	-0.96875 	0.5 	39.91 	-0.509047 	3.48798e-20
-0.3125 	-0.96875 	0.5 	39.9236 	-0.514678 	3.16367e-21
-0.296875 	-0.96875 	0.5 	39.9345 	-0.522615 	2.73499e-20
-0.28125 	-0.96875 	0.5 	39.9486 	-0.529329 	2.57356e-20
-0.265625 	-0.96875 	0.5 	39.9621 	-0.533073 	-2.14256e-20
-0.25 	-0.96875 	0.5 	39.9772 	-0.537267 	-9.74135e-20
-0.234375 	-0.96875 	0.5 	39.9916 	-0.541222 	-2.63031e-19
-0.21875 	-0.96875 	0.5 	40.0062 	-0.544743 	-1.53268e-19
-0.203125 	-0.96875 	0.5 	40.0208 	-0.548323 	-7.17249e-21
-0.1875 	-0.96875 	0.5 	40.0364 	-0.550722 	-2.11968e-20
-0.171875 	-0.96875 	0.5 	40.0519 	-0.552983 	-3.44111e-20
-0.15625 	-0.96875 	0.5 	40.0672 	-0.555429 	6.70258e-20
-0.140625 	-0.96875 	0.5 	40.0848 	-0.555602 	-5.25567e-21
-0.125 	-0.96875 	0.5 	40.1028 	-0.55547 	-4.14731e-20
-0.109375 	-0.96875 	0.5 	40.1198 	-0.554909 	-7.98861e-20
-0.09375 	-0.96875 	0.5 	40.1364 	-0.553669 	-1.14255e-19
-0.078125 	-0.96875 	0.5 	40.1528 	-0.552436 	-1.75365e-19
-0.0625 	-0.96875 	0.5 	40.169 	-0.550651 	-1.23396e-19
-0.046875 	-0.96875 	0.5 	40.1854 	-0.545362 	1.25855e-19
-0.03125 	-0.96875 	0.5 	40.2035 	-0.541207 	1.47431e-19
-0.015625 	-0.96875 	0.5 	40.2197 	-0.536868 	5.90857e-21
0 	-0.96875 	0.5 	40.2366 	-0.531687 	-8.7148e-21
0.015625 	-0.96875 	0.5 	40.253 	-0.525359 	5.25933e-21
0.03125 	-0.96875 	0.5 	40.2698 	-0.516389 	1.64747e-19
0.046875 	-0.96875 	0.5 	40.2861 	-0.509885 	1.02259e-19
0.0625 	-0.96875 	0.5 	40.3015 	-0.501676 	1.25664e-19
0.078125 	-0.96875 	0.5 	40.3161 	-0.491562 	3.67649e-20
0.09375 	-0.96875 	0.5 	40.3315 	-0.481926 	-5.77426e-21
0.109375 	-0.96875 	0.5 	40.3452 	-0.471396 	-9.22052e-20
0.125 	-0.96875 	0.5 	40.3592 	-0.46009 	-2.90205e-20
0.140625 	-0.96875 	0.5 	40.3733 	-0.44708 	-3.28142e-20
0.15625 	-0.96875 	0.5 	40.3871 	-0.433924 	-4.64483e-20
0.171875 	-0.96875 	0.5 	40.4004 	-0.421598 	2.24807e-20
0.1875 	-0.96875 	0.5 	40.412 	-0.407595 	3.40438e-20
0.203125 	-0.96875 	0.5 	40.4234 	-0.39361 	7.84683e-20
0.21875 	-0.96875 	0.5 	40.4339 	-0.380216 	-1.10334e-20
0.234375 	-0.96875 	0.5 	40.4441 	-0.365408 	-1.87147e-20
0.25 	-0.96875 	0.5 	40.4544 	-0.349442 	-1.44735e-20
0.265625 	-0.96875 	0.5 	40.4633 	-0.33203 	-7.3169e-21
0.28125 	-0.96875 	0.5 	40.4715 	-0.315414 	5.06278e-21
0.296875 	-0.96875 	0.5 	40.4779 	-0.299482 	-8.30853e-20
0.3125 	-0.96875 	0.5 	40.4845 	-0.280943 	-3.51143e-20
0.328125 	-0.96875 	0.5 	40.49 	-0.263411 	2.94767e-20
0.34375 	-0.96875 	0.5 	40.495 	-0.246205 	1.05998e-19
0.359375 	-0.96875 	0.5 	40.4985 	-0.23086 	1.02211e-20
0.375 	-0.96875 	0.5 	40.5017 	-0.212838 	1.00455e-20
0.390625 	-0.96875 	0.5 	40.5041 	-0.195253 	2.79357e-20
0.40625 	-0.96875 	0.5 	40.5063 	-0.177048 	-1.40606e-19
0.421875 	-0.96875 	0.5 	40.5066 	-0.161068 	2.78735e-20
0.4375 	-0.96875 	0.5 	40.5054 	-0.1436 	3.3805e-20
0.453125 	-0.96875 	0.5 	40.5053 	-0.126041 	1.68265e-20
0.46875 	-0.96875 	0.5 	40.5061 	-0.110192 	6.54869e-21
0.484375 	-0.96875 	0.5 	40.5032 	-0.0882197 	3.92925e-20
0.5 	-0.96875 	0.5 	40.5002 	-0.0733401 	2.52974e-20
0.515625 	-0.96875 	0.5 	40.4967 	-0.0584011 	3.22343e-20
0.53125 	-0.96875 	0.5 	40.4922 	-0.042444 	1.0501e-20
0.546875 	-0.96875 	0.5 	40.4878 	-0.0259352 	-1.08152e-20
0.5625 	-0.96875 	0.5 	40.4837 	-0.010782 	1.49448e-20
0.578125 	-0.96875 	0.5 	40.4773 	0.00333971 	1.29377e-20
0.59375 	-0.96875 	0.5 	40.4711 	0.0173525 	3.58807e-20
0.609375 	-0.96875 	0.5 	40.4647 	0.0323006 	1.2272e-21
0.625 	-0.96875 	0.5 	40.4563 	0.0455847 	5.05825e-20
0.640625 	-0.96875 	0.5 	40.4477 	0.0577479 	1.48107e-19
0.65625 	-0.96875 	0.5 	40.4403 	0.0722874 	-7.40413e-21
0.671875 	-0.96875 	0.5 	40.4311 	0.0852404 	1.13453e-20
0.6875 	-0.96875 	0.5 	40.4214 	0.0955811 	1.29688e-20
0.703125 	-0.96875 	0.5 	40.4133 	0.106898 	1.49037e-20
0.71875 	-0.96875 	0.5 	40.4037 	0.117725 	1.38336e-19
0.734375 	-0.96875 	0.5 	40.3953 	0.128099 	-1.05365e-20
0.75 	-0.96875 	0.5 	40.3829 	0.137112 	-2.17526e-19
0.765625 	-0.96875 	0.5 	40.3721 	0.145522 	-1.59956e-19
0.78125 	-0.96875 	0.5 	40.3615 	0.153894 	-8.54394e-20
0.796875 	-0.96875 	0.5 	40.3507 	0.160936 	-4.92343e-20
0.8125 	-0.96875 	0.5 	40.3402 	0.167793 	-1.22939e-20
0.828125 	-0.96875 	0.5 	40.3289 	0.175518 	1.51997e-20
0.84375 	-0.96875 	0.5 	40.3167 	0.181428 	1.10395e-20
0.859375 	-0.96875 	0.5 	40.3048 	0.186823 	4.25062e-20
0.875 	-0.96875 	0.5 	40.2935 	0.193241 	-2.33949e-20
0.890625 	-0.96875 	0.5 	40.2816 	0.197079 	-5.2149e-20
0.90625 	-0.96875 	0.5 	40.27 	0.202496 	3.6694e-21
0.921875 	-0.96875 	0.5 	40.2603 	0.205943 	-1.69729e-20
0.9375 	-0.96875 	0.5 	40.2503 	0.207439 	-5.08494e-21
0.953125 	-0.96875 	0.5 	40.2386 	0.21039 	-1.15091e-20
0.96875 	-0.96875 	0.5 	40.2273 	0.213155 	-1.96905e-20
0.984375 	-0.96875 	0.5 	40.2165 	0.214825 	2.99914e-20
1 	-0.96875 	0.5 	40.2059 	0.21715 	2.01022e-20
1.01562 	-0.96875 	0.5 	40.1951 	0.219257 	2.84839e-20
1.03125 	-0.96875 	0.5 	40.1844 	0.219276 	1.4789e-20
1.04688 	-0.96875 	0.5 	40.1748 	0.218123 	3.74904e-20
1.0625 	-0.96875 	0.5 	40.1651 	0.216843 	6.87049e-20
1.07812 	-0.96875 	0.5 	40.1551 	0.216444 	3.30419e-20
1.09375 	-0.96875 	0.5 	40.1458 	0.215815 	4.67898e-20
1.10938 	-0.96875 	0.5 	40.1371 	0.214351 	2.91916e-19
1.125 	-0.96875 	0.5 	40.1272 	0.2129 	1.22804e-19
1.14062 	-0.96875 	0.5 	40.1168 	0.210861 	1.78082e-19
1.15625 	-0.96875 	0.5 	40.1063 	0.208685 	2.85363e-19
1.17188 	-0.96875 	0.5 	40.0969 	0.208826 	-4.33629e-20
1.1875 	-0.96875 	0.5 	40.0887 	0.205413 	7.96235e-20
1.20312 	-0.96875 	0.5 	40.0816 	0.200542 	2.1642e-19
1.21875 	-0.96875 	0.5 	40.0744 	0.195671 	3.53217e-19
1.23438 	-0.96875 	0.5 	40.067 	0.193729 	2.48084e-19
1.25 	-0.96875 	0.5 	40.0595 	0.192467 	3.8181e-20
1.26562 	-0.96875 	0.5 	40.0528 	0.188057 	-1.08918e-19
1.28125 	-0.96875 	0.5 	40.0457 	0.184155 	3.33483e-19
1.29688 	-0.96875 	0.5 	40.0391 	0.180033 	4.10861e-19
1.3125 	-0.96875 	0.5 	40.0326 	0.177106 	8.6992e-20
1.32812 	-0.96875 	0.5 	40.0259 	0.173925 	-1.70041e-19
1.34375 	-0.96875 	0.5 	40.0197 	0.170694 	-4.17228e-20
1.35938 	-0.96875 	0.5 	40.0149 	0.166232 	-8.16645e-20
1.375 	-0.96875 	0.5 	40.0099 	0.161531 	3.11825e-20
1.39062 	-0.96875 	0.5 	40.005 	0.1569 	1.1914e-19
1.40625 	-0.96875 	0.5 	39.9999 	0.15132 	4.54865e-20
1.42188 	-0.96875 	0.5 	39.9927 	0.148947 	-9.84818e-21
1.4375 	-0.96875 	0.5 	39.9866 	0.146104 	2.90188e-20
1.45312 	-0.96875 	0.5 	39.9842 	0.138827 	1.06923e-19
1.46875 	-0.96875 	0.5 	39.9805 	0.135272 	7.38559e-20
1.48438 	-0.96875 	0.5 	39.9784 	0.128941 	3.37824e-20
-0.5 	-0.953125 	0.5 	39.7897 	-0.428405 	-3.51659e-20
-0.484375 	-0.953125 	0.5 	39.7977 	-0.438487 	-9.89907e-20
-0.46875 	-0.953125 	0.5 	39.8068 	-0.447029 	-7.10149e-20
-0.453125 	-0.953125 	0.5 	39.8165 	-0.455669 	-1.63213e-19
-0.4375 	-0.953125 	0.5 	39.8245 	-0.465145 	2.55739e-21
-0.421875 	-0.953125 	0.5 	39.8357 	-0.475118 	-1.90139e-20
-0.40625 	-0.953125 	0.5 	39.8454 	-0.48284 	8.17046e-20
-0.390625 	-0.953125 	0.5 	39.856 	-0.488936 	-6.16084e-19
-0.375 	-0.953125 	0.5 	39.867 	-0.49679 	-4.82101e-19
-0.359375 	-0.953125 	0.5 	39.8784 	-0.506754 	3.28258e-19
-0.34375 	-0.953125 	0.5 	39.8912 	-0.513872 	1.4719e-19
-0.328125 	-0.953125 	0.5 	39.9035 	-0.520775 	2.79305e-20
-0.3125 	-0.953125 	0.5 	39.9152 	-0.527886 	1.78391e-20
-0.296875 	-0.953125 	0.5 	39.9277 	-0.53552 	2.32548e-19
-0.28125 	-0.953125 	0.5 	39.9426 	-0.543103 	1.29984e-19
-0.265625 	-0.953125 	0.5 	39.9569 	-0.547846 	3.20519e-20
-0.25 	-0.953125 	0.5 	39.9722 	-0.551484 	-1.19895e-19
-0.234375 	-0.953125 	0.5 	39.9875 	-0.557868 	-1.97213e-19
-0.21875 	-0.953125 	0.5 	40.0021 	-0.561335 	-1.0396e-19
-0.203125 	-0.953125 	0.5 	40.0173 	-0.564368 	1.62141e-19
-0.1875 	-0.953125 	0.5 	40.034 	-0.567246 	8.55333e-20
-0.171875 	-0.953125 	0.5 	40.0493 	-0.570197 	5.65892e-20
-0.15625 	-0.953125 	0.5 	40.0663 	-0.572256 	2.67303e-20
-0.140625 	-0.953125 	0.5 	40.0869 	-0.56981 	1.04087e-19
-0.125 	-0.953125 	0.5 	40.1018 	-0.573296 	-5.25068e-20
-0.109375 	-0.953125 	0.5 	40.1207 	-0.572809 	-5.02024e-20
-0.09375 	-0.953125 	0.5 	40.137 	-0.570401 	-2.79839e-19
-0.078125 	-0.953125 	0.5 	40.1544 	-0.5694 	-1.50839e-19
-0.0625 	-0.953125 	0.5 	40.1729 	-0.568197 	-2.35482e-20
-0.046875 	-0.953125 	0.5 	40.1912 	-0.563926 	-6.18011e-20
-0.03125 	-0.953125 	0.5 	40.2098 	-0.558788 	1.12089e-20
-0.015625 	-0.953125 	0.5 	40.2272 	-0.55433 	8.66837e-21
0 	-0.953125 	0.5 	40.2427 	-0.547004 	1.52142e-20
0.015625 	-0.953125 	0.5 	40.2597 	-0.541477 	4.12425e-20
0.03125 	-0.953125 	0.5 	40.2772 	-0.533506 	2.15588e-19
0.046875 	-0.953125 	0.5 	40.2938 	-0.527039 	1.17233e-19
0.0625 	-0.953125 	0.5 	40.311 	-0.517917 	8.43472e-20
0.078125 	-0.953125 	0.5 	40.3261 	-0.507237 	5.79053e-20
0.09375 	-0.953125 	0.5 	40.3414 	-0.497297 	-3.71679e-22
0.109375 	-0.953125 	0.5 	40.3556 	-0.486789 	-1.55936e-20
0.125 	-0.953125 	0.5 	40.3716 	-0.47439 	9.15897e-20
0.140625 	-0.953125 	0.5 	40.3867 	-0.459008 	-1.3853e-19
0.15625 	-0.953125 	0.5 	40.3998 	-0.448141 	4.43806e-20
0.171875 	-0.953125 	0.5 	40.4142 	-0.434849 	1.90514e-20
0.1875 	-0.953125 	0.5 	40.4265 	-0.420624 	6.20465e-20
0.203125 	-0.953125 	0.5 	40.4384 	-0.406686 	1.74532e-20
0.21875 	-0.953125 	0.5 	40.4499 	-0.391067 	-3.0765e-20
0.234375 	-0.953125 	0.5 	40.4598 	-0.373883 	-1.14862e-19
0.25 	-0.953125 	0.5 	40.4704 	-0.358215 	1.17848e-22
0.265625 	-0.953125 	0.5 	40.4797 	-0.339856 	1.66145e-20
0.28125 	-0.953125 	0.5 	40.4881 	-0.322334 	2.8644e-21
0.296875 	-0.953125 	0.5 	40.4944 	-0.305597 	3.26822e-20
0.3125 	-0.953125 	0.5 	40.5008 	-0.288379 	4.60077e-20
0.328125 	-0.953125 	0.5 	40.508 	-0.273234 	-1.8203e-21
0.34375 	-0.953125 	0.5 	40.5122 	-0.251187 	1.78554e-20
0.359375 	-0.953125 	0.5 	40.5155 	-0.233689 	7.00996e-21
0.375 	-0.953125 	0.5 	40.5184 	-0.21586 	-1.42624e-20
0.390625 	-0.953125 	0.5 	40.5212 	-0.197676 	-5.74543e-20
0.40625 	-0.953125 	0.5 	40.5228 	-0.178587 	-6.18833e-20
0.421875 	-0.953125 	0.5 	40.5241 	-0.159726 	-1.25463e-20
0.4375 	-0.953125 	0.5 	40.5235 	-0.139893 	4.44935e-20
0.453125 	-0.953125 	0.5 	40.5231 	-0.122517 	4.86131e-20
0.46875 	-0.953125 	0.5 	40.523 	-0.10735 	1.98155e-20
0.484375 	-0.953125 	0.5 	40.5199 	-0.089306 	1.06347e-20
0.5 	-0.953125 	0.5 	40.5172 	-0.0719727 	-8.03127e-21
0.515625 	-0.953125 	0.5 	40.5125 	-0.0547797 	-2.21736e-20
0.53125 	-0.953125 	0.5 	40.5079 	-0.0371806 	1.26201e-19
0.546875 	-0.953125 	0.5 	40.504 	-0.0218447 	4.05193e-20
0.5625 	-0.953125 	0.5 	40.4988 	-0.0047256 	1.67323e-21
0.578125 	-0.953125 	0.5 	40.491 	0.0103685 	1.11875e-20
0.59375 	-0.953125 	0.5 	40.4848 	0.0239566 	5.91985e-20
0.609375 	-0.953125 	0.5 	40.478 	0.0387693 	-7.94733e-20
0.625 	-0.953125 	0.5 	40.4698 	0.0525261 	-1.02078e-19
0.640625 	-0.953125 	0.5 	40.4612 	0.0663321 	6.08674e-20
0.65625 	-0.953125 	0.5 	40.4522 	0.0810349 	-6.13884e-21
0.671875 	-0.953125 	0.5 	40.4427 	0.0941903 	1.19054e-20
0.6875 	-0.953125 	0.5 	40.4342 	0.105006 	2.88467e-20
0.703125 	-0.953125 	0.5 	40.4252 	0.115995 	9.05714e-20
0.71875 	-0.953125 	0.5 	40.4156 	0.126567 	1.48136e-19
0.734375 	-0.953125 	0.5 	40.4067 	0.137044 	9.53256e-20
0.75 	-0.953125 	0.5 	40.3969 	0.146909 	-8.67244e-20
0.765625 	-0.953125 	0.5 	40.3845 	0.155531 	-5.71354e-20
0.78125 	-0.953125 	0.5 	40.3683 	0.165246 	-1.05575e-19
0.796875 	-0.953125 	0.5 	40.3573 	0.172196 	-4.61449e-20
0.8125 	-0.953125 	0.5 	40.3469 	0.179215 	-1.65069e-20
0.828125 	-0.953125 	0.5 	40.3355 	0.187151 	8.69227e-21
0.84375 	-0.953125 	0.5 	40.3244 	0.191705 	4.40293e-22
0.859375 	-0.953125 	0.5 	40.3111 	0.198043 	-4.63153e-21
0.875 	-0.953125 	0.5 	40.2991 	0.2035 	-2.61691e-20
0.890625 	-0.953125 	0.5 	40.2871 	0.208165 	-1.39019e-20
0.90625 	-0.953125 	0.5 	40.2751 	0.212931 	3.31912e-21
0.921875 	-0.953125 	0.5 	40.2634 	0.217123 	1.67302e-20
0.9375 	-0.953125 	0.5 	40.252 	0.219958 	1.13063e-20
0.953125 	-0.953125 	0.5 	40.2406 	0.222793 	5.88244e-21
0.96875 	-0.953125 	0.5 	40.2292 	0.224586 	2.15938e-21
0.984375 	-0.953125 	0.5 	40.2172 	0.226239 	1.30177e-20
1 	-0.953125 	0.5 	40.2069 	0.228798 	1.91978e-20
1.01562 	-0.953125 	0.5 	40.1951 	0.230143 	3.12845e-20
1.03125 	-0.953125 	0.5 	40.1844 	0.230178 	1.90566e-20
1.04688 	-0.953125 	0.5 	40.1755 	0.229721 	-5.29857e-21
1.0625 	-0.953125 	0.5 	40.1654 	0.228139 	4.6293e-20
1.07812 	-0.953125 	0.5 	40.1552 	0.226248 	8.18232e-20
1.09375 	-0.953125 	0.5 	40.1444 	0.224882 	2.93218e-20
1.10938 	-0.953125 	0.5 	40.134 	0.222605 	1.82159e-19
1.125 	-0.953125 	0.5 	40.1226 	0.21885 	4.82889e-19
1.14062 	-0.953125 	0.5 	40.1125 	0.217424 	4.98404e-19
1.15625 	-0.953125 	0.5 	40.1048 	0.219759 	5.3222e-20
1.17188 	-0.953125 	0.5 	40.0926 	0.216943 	-3.13974e-19
1.1875 	-0.953125 	0.5 	40.0846 	0.214769 	2.77532e-20
1.20312 	-0.953125 	0.5 	40.0774 	0.210235 	6.79108e-20
1.21875 	-0.953125 	0.5 	40.0703 	0.205474 	1.66221e-19
1.23438 	-0.953125 	0.5 	40.0629 	0.202737 	1.26731e-19
1.25 	-0.953125 	0.5 	40.0563 	0.198252 	-2.08354e-19
1.26562 	-0.953125 	0.5 	40.0494 	0.194404 	-2.44067e-19
1.28125 	-0.953125 	0.5 	40.0419 	0.191727 	1.57522e-19
1.29688 	-0.953125 	0.5 	40.0352 	0.186802 	5.04231e-19
1.3125 	-0.953125 	0.5 	40.0287 	0.183473 	3.15344e-19
1.32812 	-0.953125 	0.5 	40.0222 	0.180144 	1.26458e-19
1.34375 	-0.953125 	0.5 	40.0154 	0.176447 	-2.8251e-22
1.35938 	-0.953125 	0.5 	40.0105 	0.171607 	6.7852e-20
1.375 	-0.953125 	0.5 	40.0057 	0.167129 	1.8189e-19
1.39062 	-0.953125 	0.5 	40.0008 	0.162587 	2.8504e-19
1.40625 	-0.953125 	0.5 	39.9956 	0.15655 	1.33404e-19
1.42188 	-0.953125 	0.5 	39.9895 	0.15186 	-1.52475e-20
1.4375 	-0.953125 	0.5 	39.983 	0.149496 	1.94067e-20
1.45312 	-0.953125 	0.5 	39.9804 	0.143448 	6.96436e-20
1.46875 	-0.953125 	0.5 	39.9761 	0.141269 	4.47423e-21
1.48438 	-0.953125 	0.5 	39.9732 	0.134094 	-4.23815e-20
-0.5 	-0.9375 	0.5 	39.7804 	-0.435658 	-8.20384e-21
-0.484375 	-0.9375 	0.5 	39.7879 	-0.445849 	1.52573e-21
-0.46875 	-0.9375 	0.5 	39.7969 	-0.456331 	-6.36451e-20
-0.453125 	-0.9375 	0.5 	39.807 	-0.464993 	-2.01078e-19
-0.4375 	-0.9375 	0.5 	39.8155 	-0.474558 	-3.14313e-20
-0.421875 	-0.9375 	0.5 	39.8271 	-0.484424 	-3.09455e-20
-0.40625 	-0.9375 	0.5 	39.8378 	-0.494337 	-6.10082e-20
-0.390625 	-0.9375 	0.5 	39.8486 	-0.502136 	-9.18166e-20
-0.375 	-0.9375 	0.5 	39.8596 	-0.512491 	3.93684e-19
-0.359375 	-0.9375 	0.5 	39.87 	-0.519945 	3.27615e-19
-0.34375 	-0.9375 	0.5 	39.8816 	-0.528269 	4.54732e-19
-0.328125 	-0.9375 	0.5 	39.8941 	-0.534867 	2.89862e-19
-0.3125 	-0.9375 	0.5 	39.9071 	-0.541251 	5.29524e-21
-0.296875 	-0.9375 	0.5 	39.9223 	-0.548477 	1.12377e-19
-0.28125 	-0.9375 	0.5 	39.9368 	-0.556039 	1.24354e-19
-0.265625 	-0.9375 	0.5 	39.9521 	-0.563189 	8.28686e-20
-0.25 	-0.9375 	0.5 	39.9677 	-0.568701 	9.80001e-21
-0.234375 	-0.9375 	0.5 	39.9835 	-0.574392 	-4.76466e-20
-0.21875 	-0.9375 	0.5 	39.9984 	-0.577551 	1.56029e-19
-0.203125 	-0.9375 	0.5 	40.0141 	-0.580731 	2.31882e-19
-0.1875 	-0.9375 	0.5 	40.0305 	-0.584568 	1.98773e-20
-0.171875 	-0.9375 	0.5 	40.0475 	-0.588352 	7.44967e-21
-0.15625 	-0.9375 	0.5 	40.0655 	-0.590944 	-4.69685e-21
-0.140625 	-0.9375 	0.5 	40.0831 	-0.589245 	6.18579e-21
-0.125 	-0.9375 	0.5 	40.102 	-0.590517 	-2.78714e-20
-0.109375 	-0.9375 	0.5 	40.1217 	-0.59038 	2.64999e-20
-0.09375 	-0.9375 	0.5 	40.1382 	-0.588717 	-1.43911e-19
-0.078125 	-0.9375 	0.5 	40.1559 	-0.587906 	8.27596e-20
-0.0625 	-0.9375 	0.5 	40.1748 	-0.586301 	3.07928e-19
-0.046875 	-0.9375 	0.5 	40.1939 	-0.58411 	-1.18148e-19
-0.03125 	-0.9375 	0.5 	40.2125 	-0.579246 	-9.04224e-20
-0.015625 	-0.9375 	0.5 	40.2314 	-0.572281 	-9.55083e-20
0 	-0.9375 	0.5 	40.2486 	-0.568928 	2.51813e-19