-0.5 	-1 	0.5 	39.9513 	-0.245082 	-1.94393e-20
-0.484375 	-1 	0.5 	39.9554 	-0.249438 	2.90003e-20
-0.46875 	-1 	0.5 	39.9598 	-0.253505 	-1.45496e-20
-0.453125 	-1 	0.5 	39.9653 	-0.258449 	-1.92559e-20
-0.4375 	-1 	0.5 	39.9704 	-0.262063 	6.54837e-21
-0.421875 	-1 	0.5 	39.9757 	-0.265524 	6.80728e-21
-0.40625 	-1 	0.5 	39.9813 	-0.269037 	3.51472e-21
-0.390625 	-1 	0.5 	39.987 	-0.272793 	2.78698e-21
-0.375 	-1 	0.5 	39.9926 	-0.276777 	1.76521e-20
-0.359375 	-1 	0.5 	39.9991 	-0.281365 	9.35759e-20
-0.34375 	-1 	0.5 	40.0055 	-0.285702 	1.48157e-19
-0.328125 	-1 	0.5 	40.0113 	-0.28831 	5.55438e-20
-0.3125 	-1 	0.5 	40.0174 	-0.291065 	-3.39559e-20
-0.296875 	-1 	0.5 	40.0239 	-0.293977 	8.11061e-20
-0.28125 	-1 	0.5 	40.0314 	-0.295793 	1.04887e-20
-0.265625 	-1 	0.5 	40.0386 	-0.299045 	-1.17618e-20
-0.25 	-1 	0.5 	40.0466 	-0.30132 	-7.25968e-20
-0.234375 	-1 	0.5 	40.0547 	-0.303544 	8.69748e-21
-0.21875 	-1 	0.5 	40.0625 	-0.306021 	8.96e-20
-0.203125 	-1 	0.5 	40.0705 	-0.306836 	9.26601e-21
-0.1875 	-1 	0.5 	40.0786 	-0.308188 	-1.55695e-20
-0.171875 	-1 	0.5 	40.0872 	-0.30932 	-2.8811e-20
-0.15625 	-1 	0.5 	40.095 	-0.309358 	-1.25266e-19
-0.140625 	-1 	0.5 	40.104 	-0.309672 	-8.63325e-20
-0.125 	-1 	0.5 	40.1132 	-0.310011 	-3.4175e-20
-0.109375 	-1 	0.5 	40.1225 	-0.310043 	3.19604e-20
-0.09375 	-1 	0.5 	40.1314 	-0.30962 	7.07958e-20
-0.078125 	-1 	0.5 	40.1402 	-0.309216 	8.59551e-20
-0.0625 	-1 	0.5 	40.1498 	-0.307729 	-4.94289e-20
-0.046875 	-1 	0.5 	40.1598 	-0.304306 	4.60948e-20
-0.03125 	-1 	0.5 	40.1692 	-0.303927 	-5.00241e-20
-0.015625 	-1 	0.5 	40.1783 	-0.300998 	1.00636e-20
0 	-1 	0.5 	40.187 	-0.298365 	-6.87962e-21
0.015625 	-1 	0.5 	40.1965 	-0.296411 	5.42151e-20
0.03125 	-1 	0.5 	40.2066 	-0.292438 	8.05307e-21
0.046875 	-1 	0.5 	40.2168 	-0.290722 	-1.8234e-19
0.0625 	-1 	0.5 	40.2244 	-0.283671 	-8.84868e-20
0.078125 	-1 	0.5 	40.2338 	-0.279953 	-2.18432e-19
0.09375 	-1 	0.5 	40.2434 	-0.274049 	-8.99163e-20
0.109375 	-1 	0.5 	40.2529 	-0.268171 	-6.23273e-21
0.125 	-1 	0.5 	40.2606 	-0.261259 	1.04737e-19
0.140625 	-1 	0.5 	40.2683 	-0.254692 	1.78532e-19
0.15625 	-1 	0.5 	40.2763 	-0.249566 	9.64997e-20
0.171875 	-1 	0.5 	40.2846 	-0.242813 	-2.09551e-21
0.1875 	-1 	0.5 	40.2923 	-0.235937 	-1.21617e-21
0.203125 	-1 	0.5 	40.3005 	-0.228815 	-1.73735e-20
0.21875 	-1 	0.5 	40.3086 	-0.221523 	-2.88029e-20
0.234375 	-1 	0.5 	40.3138 	-0.212518 	-2.93489e-19
0.25 	-1 	0.5 	40.3231 	-0.201034 	9.63907e-20
0.265625 	-1 	0.5 	40.3271 	-0.191514 	3.15356e-20
0.28125 	-1 	0.5 	40.3345 	-0.184061 	3.81404e-23
0.296875 	-1 	0.5 	40.337 	-0.174366 	1.12568e-20
0.3125 	-1 	0.5 	40.3414 	-0.165274 	5.14256e-21
0.328125 	-1 	0.5 	40.3463 	-0.155847 	1.52522e-20
0.34375 	-1 	0.5 	40.3512 	-0.145945 	5.86985e-20
0.359375 	-1 	0.5 	40.3547 	-0.136288 	2.74385e-20
0.375 	-1 	0.5 	40.3582 	-0.125528 	-1.17177e-19
0.390625 	-1 	0.5 	40.3622 	-0.114354 	-8.89587e-21
0.40625 	-1 	0.5 	40.3641 	-0.103336 	-1.38739e-20
0.421875 	-1 	0.5 	40.3657 	-0.092203 	-1.64623e-20
0.4375 	-1 	0.5 	40.3671 	-0.0807562 	5.95825e-20
0.453125 	-1 	0.5 	40.3682 	-0.0700649 	3.30457e-21
0.46875 	-1 	0.5 	40.3708 	-0.0602904 	-3.33076e-20
0.484375 	-1 	0.5 	40.3716 	-0.0512049 	8.19162e-20
0.5 	-1 	0.5 	40.3713 	-0.0398405 	1.19164e-19
0.515625 	-1 	0.5 	40.3701 	-0.0280922 	4.0346e-20
0.53125 	-1 	0.5 	40.3693 	-0.0172002 	2.46674e-20
0.546875 	-1 	0.5 	40.3669 	-0.00502383 	3.16399e-19
0.5625 	-1 	0.5 	40.3666 	0.00506506 	3.17273e-20
0.578125 	-1 	0.5 	40.3645 	0.0148278 	3.67804e-20
0.59375 	-1 	0.5 	40.3611 	0.0243918 	-1.36432e-19
0.609375 	-1 	0.5 	40.3577 	0.0345173 	-1.76431e-19
0.625 	-1 	0.5 	40.354 	0.0444089 	5.35185e-20
0.640625 	-1 	0.5 	40.3502 	0.05301 	6.77238e-20
0.65625 	-1 	0.5 	40.3464 	0.0640036 	-6.51572e-20
0.671875 	-1 	0.5 	40.3412 	0.0735889 	-3.06959e-20
0.6875 	-1 	0.5 	40.3361 	0.0819081 	1.12059e-20
0.703125 	-1 	0.5 	40.3309 	0.0898087 	1.24107e-20
0.71875 	-1 	0.5 	40.3253 	0.0979577 	-4.6739e-21
0.734375 	-1 	0.5 	40.3208 	0.106551 	-6.22003e-20
0.75 	-1 	0.5 	40.3149 	0.113954 	-5.55368e-20
0.765625 	-1 	0.5 	40.3084 	0.120648 	-2.99285e-21
0.78125 	-1 	0.5 	40.3017 	0.128118 	4.08905e-20
0.796875 	-1 	0.5 	40.2933 	0.135043 	-3.82345e-20
0.8125 	-1 	0.5 	40.2863 	0.140684 	2.21241e-20
0.828125 	-1 	0.5 	40.2798 	0.146711 	1.91335e-20
0.84375 	-1 	0.5 	40.2757 	0.152379 	5.14634e-20
0.859375 	-1 	0.5 	40.2671 	0.157619 	9.35757e-21
0.875 	-1 	0.5 	40.2581 	0.164229 	-2.37625e-21
0.890625 	-1 	0.5 	40.2501 	0.168277 	-2.3829e-20
0.90625 	-1 	0.5 	40.2421 	0.17314 	-2.58572e-20
0.921875 	-1 	0.5 	40.2348 	0.179502 	-8.98036e-20
0.9375 	-1 	0.5 	40.2267 	0.18465 	1.51402e-19
0.953125 	-1 	0.5 	40.2199 	0.187037 	1.02684e-19
0.96875 	-1 	0.5 	40.2139 	0.187852 	-1.82356e-19
0.984375 	-1 	0.5 	40.2073 	0.190349 	-1.65444e-19
1 	-1 	0.5 	40.1991 	0.192626 	5.1235e-22
1.01562 	-1 	0.5 	40.1899 	0.194472 	-8.90762e-20
1.03125 	-1 	0.5 	40.182 	0.196209 	-2.65425e-20
1.04688 	-1 	0.5 	40.174 	0.198025 	-1.61429e-20
1.0625 	-1 	0.5 	40.1665 	0.199717 	-7.12807e-21
1.07812 	-1 	0.5 	40.1591 	0.200976 	2.51515e-20
1.09375 	-1 	0.5 	40.1525 	0.200743 	-5.50074e-21
1.10938 	-1 	0.5 	40.145 	0.201757 	-2.75097e-20
1.125 	-1 	0.5 	40.1376 	0.199839 	-1.21221e-19
1.14062 	-1 	0.5 	40.1307 	0.201503 	-9.915e-21
1.15625 	-1 	0.5 	40.1232 	0.200539 	1.13009e-19
1.17188 	-1 	0.5 	40.1177 	0.200073 	2.43576e-20
1.1875 	-1 	0.5 	40.1122 	0.198655 	1.61186e-20
1.20312 	-1 	0.5 	40.1063 	0.196866 	2.25232e-20
1.21875 	-1 	0.5 	40.0996 	0.195528 	1.95201e-21
1.23438 	-1 	0.5 	40.0922 	0.194594 	4.85803e-20
1.25 	-1 	0.5 	40.0865 	0.193989 	-1.42808e-20
1.26562 	-1 	0.5 	40.0803 	0.191988 	-7.31837e-20
1.28125 	-1 	0.5 	40.075 	0.189942 	-9.24299e-20
1.29688 	-1 	0.5 	40.07 	0.188202 	-8.8896e-20
1.3125 	-1 	0.5 	40.0653 	0.185917 	-1.78064e-19
1.32812 	-1 	0.5 	40.0606 	0.183166 	-2.13854e-19
1.34375 	-1 	0.5 	40.0558 	0.180499 	-1.71845e-19
1.35938 	-1 	0.5 	40.0505 	0.178132 	4.69003e-20
1.375 	-1 	0.5 	40.0462 	0.176068 	-2.95922e-20
1.39062 	-1 	0.5 	40.0419 	0.173689 	5.7435e-20
1.40625 	-1 	0.5 	40.0374 	0.171471 	1.10307e-19
1.42188 	-1 	0.5 	40.0331 	0.168541 	3.17165e-20
1.4375 	-1 	0.5 	40.0293 	0.165818 	1.66374e-22
1.45312 	-1 	0.5 	40.0257 	0.162929 	-1.33706e-22
1.46875 	-1 	0.5 	40.022 	0.159843 	-3.75625e-22
1.48438 	-1 	0.5 	40.0185 	0.156647 	-1.86341e-20
-0.5 	-0.984375 	0.5 	39.9465 	-0.249069 	-2.72054e-20
-0.484375 	-0.984375 	0.5 	39.9507 	-0.253685 	-2.09024e-20
-0.46875 	-0.984375 	0.5 	39.9556 	-0.258072 	-1.63307e-20
-0.453125 	-0.984375 	0.5 	39.961 	-0.262558 	-1.00192e-21
-0.4375 	-0.984375 	0.5 	39.9665 	-0.267084 	1.8728e-20
-0.421875 	-0.984375 	0.5 	39.9718 	-0.272246 	-4.86794e-20
-0.40625 	-0.984375 	0.5 	39.9773 	-0.27646 	-1.0192e-19
-0.390625 	-0.984375 	0.5 	39.9829 	-0.280538 	-1.41918e-19
-0.375 	-0.984375 	0.5 	39.9882 	-0.283091 	7.54825e-21
-0.359375 	-0.984375 	0.5 	39.9944 	-0.287257 	1.51868e-20
-0.34375 	-0.984375 	0.5 	40.0011 	-0.290553 	1.28769e-20
-0.328125 	-0.984375 	0.5 	40.0078 	-0.293851 	1.06889e-20
-0.3125 	-0.984375 	0.5 	40.014 	-0.297387 	2.42019e-20
-0.296875 	-0.984375 	0.5 	40.0213 	-0.300456 	-1.31506e-21
-0.28125 	-0.984375 	0.5 	40.0285 	-0.303669 	-1.81719e-20
-0.265625 	-0.984375 	0.5 	40.0357 	-0.306162 	-3.71964e-20
-0.25 	-0.984375 	0.5 	40.0434 	-0.308286 	-8.92588e-20
-0.234375 	-0.984375 	0.5 	40.0521 	-0.310855 	-8.86009e-20
-0.21875 	-0.984375 	0.5 	40.0603 	-0.313159 	7.05387e-21
-0.203125 	-0.984375 	0.5 	40.0692 	-0.315263 	1.87312e-20
-0.1875 	-0.984375 	0.5 	40.0776 	-0.317103 	-4.49309e-21
-0.171875 	-0.984375 	0.5 	40.0862 	-0.318126 	-1.62061e-20
-0.15625 	-0.984375 	0.5 	40.094 	-0.318173 	-1.04059e-19
-0.140625 	-0.984375 	0.5 	40.1036 	-0.318588 	-1.08715e-20
-0.125 	-0.984375 	0.5 	40.1129 	-0.319339 	5.00845e-20
-0.109375 	-0.984375 	0.5 	40.1232 	-0.318996 	-4.91354e-20
-0.09375 	-0.984375 	0.5 	40.1328 	-0.319146 	2.348e-20
-0.078125 	-0.984375 	0.5 	40.1416 	-0.318745 	3.29645e-20
-0.0625 	-0.984375 	0.5 	40.1521 	-0.316434 	-1.97023e-19
-0.046875 	-0.984375 	0.5 	40.1613 	-0.314949 	-4.90661e-20
-0.03125 	-0.984375 	0.5 	40.1709 	-0.312508 	-3.53863e-20
-0.015625 	-0.984375 	0.5 	40.1804 	-0.310136 	-1.98924e-20
0 	-0.984375 	0.5 	40.1898 	-0.307725 	2.01839e-20
0.015625 	-0.984375 	0.5 	40.1998 	-0.304903 	5.75878e-20
0.03125 	-0.984375 	0.5 	40.2099 	-0.301936 	8.45062e-20
0.046875 	-0.984375 	0.5 	40.2201 	-0.29814 	-5.65305e-20
0.0625 	-0.984375 	0.5 	40.2287 	-0.29331 	-1.10375e-19
0.078125 	-0.984375 	0.5 	40.2383 	-0.287627 	1.32204e-20
0.09375 	-0.984375 	0.5 	40.2478 	-0.28302 	8.7736e-20
0.109375 	-0.984375 	0.5 	40.2575 	-0.278003 	1.45152e-20
0.125 	-0.984375 	0.5 	40.2673 	-0.271036 	7.80418e-21
0.140625 	-0.984375 	0.5 	40.275 	-0.263763 	1.54422e-19
0.15625 	-0.984375 	0.5 	40.2831 	-0.25902 	2.58537e-20
0.171875 	-0.984375 	0.5 	40.2915 	-0.250214 	-2.71122e-22
0.1875 	-0.984375 	0.5 	40.2999 	-0.243771 	2.73664e-21
0.203125 	-0.984375 	0.5 	40.3075 	-0.236528 	-6.69318e-21
0.21875 	-0.984375 	0.5 	40.3158 	-0.228195 	-1.69341e-20
0.234375 	-0.984375 	0.5 	40.3234 	-0.21806 	1.22161e-19
0.25 	-0.984375 	0.5 	40.3317 	-0.206821 	6.34388e-20
0.265625 	-0.984375 	0.5 	40.3387 	-0.196858 	9.24625e-22
0.28125 	-0.984375 	0.5 	40.3438 	-0.188375 	1.05043e-21
0.296875 	-0.984375 	0.5 	40.3487 	-0.179804 	-2.50332e-22
0.3125 	-0.984375 	0.5 	40.3529 	-0.169776 	-1.19454e-20
0.328125 	-0.984375 	0.5 	40.359 	-0.15916 	1.61938e-20
0.34375 	-0.984375 	0.5 	40.362 	-0.149738 	7.65236e-20
0.359375 	-0.984375 	0.5 	40.3651 	-0.13911 	2.6569e-20
0.375 	-0.984375 	0.5 	40.3688 	-0.128337 	-1.03485e-19
0.390625 	-0.984375 	0.5 	40.3722 	-0.117247 	-3.01836e-20
0.40625 	-0.984375 	0.5 	40.3753 	-0.105933 	-3.60128e-21
0.421875 	-0.984375 	0.5 	40.378 	-0.0943412 	-5.57512e-20
0.4375 	-0.984375 	0.5 	40.3781 	-0.0821057 	-1.43842e-19
0.453125 	-0.984375 	0.5 	40.3801 	-0.0724648 	-3.93355e-21
0.46875 	-0.984375 	0.5 	40.3814 	-0.0614633 	4.21525e-20
0.484375 	-0.984375 	0.5 	40.3829 	-0.0509605 	1.00064e-19
0.5 	-0.984375 	0.5 	40.3814 	-0.0392382 	2.00659e-19
0.515625 	-0.984375 	0.5 	40.3804 	-0.0273958 	1.84616e-19
0.53125 	-0.984375 	0.5 	40.3795 	-0.0157998 	9.21913e-20
0.546875 	-0.984375 	0.5 	40.3786 	-0.00475342 	7.44236e-20
0.5625 	-0.984375 	0.5 	40.3774 	0.00646612 	2.86436e-20
0.578125 	-0.984375 	0.5 	40.3742 	0.0179447 	-4.75978e-20
0.59375 	-0.984375 	0.5 	40.3712 	0.0281861 	-2.56977e-19
0.609375 	-0.984375 	0.5 	40.3678 	0.0386436 	-1.12423e-19
0.625 	-0.984375 	0.5 	40.3634 	0.0467022 	1.48245e-19
0.640625 	-0.984375 	0.5 	40.3603 	0.0579517 	3.86593e-20
0.65625 	-0.984375 	0.5 	40.3568 	0.067344 	-4.40183e-20
0.671875 	-0.984375 	0.5 	40.3508 	0.0784418 	-1.60703e-20
0.6875 	-0.984375 	0.5 	40.3452 	0.0873849 	5.33065e-20
0.703125 	-0.984375 	0.5 	40.3404 	0.0957163 	2.51019e-20
0.71875 	-0.984375 	0.5 	40.3341 	0.105069 	-1.52178e-19
0.734375 	-0.984375 	0.5 	40.3286 	0.112267 	-7.6463e-20
0.75 	-0.984375 	0.5 	40.3221 	0.120191 	-3.43005e-20
0.765625 	-0.984375 	0.5 	40.3153 	0.127552 	1.4933e-20
0.78125 	-0.984375 	0.5 	40.3087 	0.135577 	3.36099e-20
0.796875 	-0.984375 	0.5 	40.2998 	0.141747 	-4.61423e-20
0.8125 	-0.984375 	0.5 	40.292 	0.147062 	-8.02461e-21
0.828125 	-0.984375 	0.5 	40.2853 	0.15279 	4.77651e-20
0.84375 	-0.984375 	0.5 	40.2796 	0.158319 	1.96043e-20
0.859375 	-0.984375 	0.5 	40.2732 	0.164979 	-2.03946e-20
0.875 	-0.984375 	0.5 	40.263 	0.171553 	-1.86455e-20
0.890625 	-0.984375 	0.5 	40.2546 	0.176602 	-2.459e-20
0.90625 	-0.984375 	0.5 	40.2468 	0.181271 	-3.60761e-20
0.921875 	-0.984375 	0.5 	40.2395 	0.186852 	-1.82043e-19
0.9375 	-0.984375 	0.5 	40.2307 	0.190489 	-9.66767e-20
0.953125 	-0.984375 	0.5 	40.2231 	0.194786 	8.01096e-20
0.96875 	-0.984375 	0.5 	40.2172 	0.195929 	-1.99283e-19
0.984375 	-0.984375 	0.5 	40.2088 	0.19862 	2.31662e-20
1 	-0.984375 	0.5 	40.2003 	0.200705 	7.45179e-20
1.01562 	-0.984375 	0.5 	40.1916 	0.201846 	-1.27851e-20
1.03125 	-0.984375 	0.5 	40.1836 	0.203621 	2.84631e-20
1.04688 	-0.984375 	0.5 	40.1755 	0.205478 	1.81839e-20
1.0625 	-0.984375 	0.5 	40.1678 	0.207297 	2.10822e-20
1.07812 	-0.984375 	0.5 	40.1603 	0.209028 	2.41796e-20
1.09375 	-0.984375 	0.5 	40.1525 	0.209329 	9.88189e-21
1.10938 	-0.984375 	0.5 	40.1449 	0.209491 	-5.34507e-21
1.125 	-0.984375 	0.5 	40.138 	0.207178 	-4.60624e-20
1.14062 	-0.984375 	0.5 	40.1305 	0.20718 	5.65003e-20
1.15625 	-0.984375 	0.5 	40.1234 	0.206384 	1.25396e-19
1.17188 	-0.984375 	0.5 	40.1171 	0.205913 	9.0372e-20
1.1875 	-0.984375 	0.5 	40.1116 	0.204734 	5.73536e-20
1.20312 	-0.984375 	0.5 	40.1054 	0.204302 	4.30656e-20
1.21875 	-0.984375 	0.5 	40.0987 	0.203145 	2.25049e-20
1.23438 	-0.984375 	0.5 	40.0915 	0.200717 	4.62145e-21
1.25 	-0.984375 	0.5 	40.0851 	0.199622 	-2.0907e-20
1.26562 	-0.984375 	0.5 	40.0795 	0.197591 	-5.34024e-20
1.28125 	-0.984375 	0.5 	40.074 	0.195558 	-8.38156e-20
1.29688 	-0.984375 	0.5 	40.068 	0.193398 	-1.06785e-19
1.3125 	-0.984375 	0.5 	40.0627 	0.190961 	-1.17479e-19
1.32812 	-0.984375 	0.5 	40.0578 	0.188298 	-7.79187e-20
1.34375 	-0.984375 	0.5 	40.053 	0.185634 	-3.83586e-20
1.35938 	-0.984375 	0.5 	40.0481 	0.182969 	1.90427e-21
1.375 	-0.984375 	0.5 	40.0437 	0.179994 	8.50437e-20
1.39062 	-0.984375 	0.5 	40.0393 	0.177416 	4.94603e-20
1.40625 	-0.984375 	0.5 	40.0348 	0.175038 	7.27143e-20
1.42188 	-0.984375 	0.5 	40.0304 	0.172401 	4.81599e-20
1.4375 	-0.984375 	0.5 	40.0265 	0.169599 	2.86126e-21
1.45312 	-0.984375 	0.5 	40.0228 	0.166495 	2.42323e-21
1.46875 	-0.984375 	0.5 	40.0187 	0.163164 	-4.09483e-22
1.48438 	-0.984375 	0.5 	40.0152 	0.160244 	-3.67069e-20
-0.5 	-0.96875 	0.5 	39.9417 	-0.252038 	-1.45337e-19
-0.484375 	-0.96875 	0.5 	39.9459 	-0.258076 	-2.52181e-20
-0.46875 	-0.96875 	0.5 	39.9506 	-0.263015 	8.74458e-21
-0.453125 	-0.96875 	0.5 	39.9574 	-0.26669 	8.24369e-20
-0.4375 	-0.96875 	0.5 	39.9609 	-0.272545 	2.40437e-20
-0.421875 	-0.96875 	0.5 	39.9674 	-0.278224 	1.13375e-19
-0.40625 	-0.96875 	0.5 	39.9729 	-0.282219 	-6.74844e-20
-0.390625 	-0.96875 	0.5 	39.9785 	-0.286711 	-1.47547e-19
-0.375 	-0.96875 	0.5 	39.9839 	-0.289369 	9.38515e-21
-0.359375 	-0.96875 	0.5 	39.9896 	-0.294207 	2.4699e-20
-0.34375 	-0.96875 	0.5 	39.9967 	-0.296873 	1.51958e-20
-0.328125 	-0.96875 	0.5 	40.0038 	-0.300107 	9.01752e-21
-0.3125 	-0.96875 	0.5 	40.0111 	-0.303697 	3.90391e-20
-0.296875 	-0.96875 	0.5 	40.0176 	-0.306876 	-8.98781e-20
-0.28125 	-0.96875 	0.5 	40.025 	-0.309612 	-8.30106e-20
-0.265625 	-0.96875 	0.5 	40.0325 	-0.312418 	-7.10278e-20
-0.25 	-0.96875 	0.5 	40.0401 	-0.315146 	-8.1217e-20
-0.234375 	-0.96875 	0.5 	40.0501 	-0.319049 	-6.537e-20
-0.21875 	-0.96875 	0.5 	40.0583 	-0.321904 	5.37567e-21
-0.203125 	-0.96875 	0.5 	40.0673 	-0.323478 	1.85842e-19
-0.1875 	-0.96875 	0.5 	40.0763 	-0.325043 	8.05949e-20
-0.171875 	-0.96875 	0.5 	40.0852 	-0.32669 	-1.75575e-22
-0.15625 	-0.96875 	0.5 	40.094 	-0.327242 	1.10181e-20
-0.140625 	-0.96875 	0.5 	40.1033 	-0.328041 	6.70422e-20
-0.125 	-0.96875 	0.5 	40.1124 	-0.328419 	5.42795e-20
-0.109375 	-0.96875 	0.5 	40.1224 	-0.328137 	-4.24949e-20
-0.09375 	-0.96875 	0.5 	40.1336 	-0.327974 	-7.85426e-20
-0.078125 	-0.96875 	0.5 	40.143 	-0.328275 	-2.00261e-20
-0.0625 	-0.96875 	0.5 	40.1526 	-0.327206 	1.95644e-20
-0.046875 	-0.96875 	0.5 	40.1625 	-0.325718 	2.95525e-20
-0.03125 	-0.96875 	0.5 	40.1726 	-0.322885 	-1.75527e-19
-0.015625 	-0.96875 	0.5 	40.1819 	-0.320269 	2.82043e-21
0 	-0.96875 	0.5 	40.1932 	-0.317185 	-7.23593e-21
0.015625 	-0.96875 	0.5 	40.2033 	-0.311692 	-9.92944e-20
0.03125 	-0.96875 	0.5 	40.2134 	-0.308732 	-5.8879e-20
0.046875 	-0.96875 	0.5 	40.2234 	-0.306172 	2.45731e-21
0.0625 	-0.96875 	0.5 	40.2335 	-0.301951 	4.04112e-20
0.078125 	-0.96875 	0.5 	40.2431 	-0.297374 	8.78507e-20
0.09375 	-0.96875 	0.5 	40.2528 	-0.292798 	1.3529e-19
0.109375 	-0.96875 	0.5 	40.2623 	-0.28768 	6.31672e-20
0.125 	-0.96875 	0.5 	40.2715 	-0.280899 	3.5968e-20
0.140625 	-0.96875 	0.5 	40.2815 	-0.273898 	3.30425e-20
0.15625 	-0.96875 	0.5 	40.29 	-0.266679 	3.08322e-20
0.171875 	-0.96875 	0.5 	40.2984 	-0.258983 	1.82714e-20
0.1875 	-0.96875 	0.5 	40.3068 	-0.251287 	5.71057e-21
0.203125 	-0.96875 	0.5 	40.315 	-0.244019 	1.26496e-22
0.21875 	-0.96875 	0.5 	40.3233 	-0.234144 	-2.13339e-23
0.234375 	-0.96875 	0.5 	40.3317 	-0.226389 	6.31707e-20
0.25 	-0.96875 	0.5 	40.3398 	-0.215118 	2.46963e-20
0.265625 	-0.96875 	0.5 	40.3477 	-0.204519 	6.51046e-21
0.28125 	-0.96875 	0.5 	40.3523 	-0.194515 	-1.86362e-19
0.296875 	-0.96875 	0.5 	40.3594 	-0.184042 	-3.58397e-20
0.3125 	-0.96875 	0.5 	40.3643 	-0.174898 	-3.79096e-20
0.328125 	-0.96875 	0.5 	40.3693 	-0.163529 	4.84039e-20
0.34375 	-0.96875 	0.5 	40.3741 	-0.153114 	6.6008e-20
0.359375 	-0.96875 	0.5 	40.3756 	-0.142343 	3.54133e-21
0.375 	-0.96875 	0.5 	40.3803 	-0.131291 	-1.85125e-20
0.390625 	-0.96875 	0.5 	40.3847 	-0.120147 	-1.76033e-20
0.40625 	-0.96875 	0.5 	40.388 	-0.109017 	6.044e-21
0.421875 	-0.96875 	0.5 	40.3913 	-0.0977993 	1.99817e-20
0.4375 	-0.96875 	0.5 	40.3913 	-0.0843882 	2.20033e-19
0.453125 	-0.96875 	0.5 	40.392 	-0.0728679 	7.86081e-21
0.46875 	-0.96875 	0.5 	40.393 	-0.0602332 	-2.08188e-19
0.484375 	-0.96875 	0.5 	40.3936 	-0.0501092 	3.31294e-21
0.5 	-0.96875 	0.5 	40.3929 	-0.0383689 	-2.43237e-21
0.515625 	-0.96875 	0.5 	40.3926 	-0.0253732 	-1.02847e-19
0.53125 	-0.96875 	0.5 	40.3903 	-0.0141382 	1.24207e-19
0.546875 	-0.96875 	0.5 	40.3899 	-0.00294163 	1.51636e-19
0.5625 	-0.96875 	0.5 	40.3875 	0.00801458 	-1.15569e-19
0.578125 	-0.96875 	0.5 	40.3861 	0.0197844 	-6.13338e-20
0.59375 	-0.96875 	0.5 	40.3806 	0.0316282 	-8.29177e-20
0.609375 	-0.96875 	0.5 	40.3777 	0.0426333 	-5.64396e-20
0.625 	-0.96875 	0.5 	40.374 	0.0524429 	-2.36657e-20
0.640625 	-0.96875 	0.5 	40.3704 	0.0628664 	7.43462e-21
0.65625 	-0.96875 	0.5 	40.3664 	0.0729655 	4.26991e-20
0.671875 	-0.96875 	0.5 	40.361 	0.0832442 	2.25486e-20
0.6875 	-0.96875 	0.5 	40.3553 	0.0931521 	-1.70945e-20
0.703125 	-0.96875 	0.5 	40.3497 	0.101938 	4.40061e-20
0.71875 	-0.96875 	0.5 	40.3444 	0.109643 	-4.87667e-20
0.734375 	-0.96875 	0.5 	40.3367 	0.117986 	-6.81085e-21
0.75 	-0.96875 	0.5 	40.3305 	0.126912 	-3.68815e-20
0.765625 	-0.96875 	0.5 	40.3237 	0.135063 	-5.15789e-21
0.78125 	-0.96875 	0.5 	40.3157 	0.14337 	1.11321e-20
0.796875 	-0.96875 	0.5 	40.3078 	0.150285 	1.8921e-20
0.8125 	-0.96875 	0.5 	40.2997 	0.157725 	1.93055e-20
0.828125 	-0.96875 	0.5 	40.292 	0.161515 	9.28215e-20
0.84375 	-0.96875 	0.5 	40.2857 	0.167613 	1.37385e-19
0.859375 	-0.96875 	0.5 	40.2781 	0.1736 	-3.24122e-20
0.875 	-0.96875 	0.5 	40.2696 	0.179081 	-6.25972e-20
0.890625 	-0.96875 	0.5 	40.2605 	0.184051 	-5.6883e-20
0.90625 	-0.96875 	0.5 	40.2514 	0.188909 	-4.82514e-20
0.921875 	-0.96875 	0.5 	40.2431 	0.193053 	-6.92047e-20
0.9375 	-0.96875 	0.5 	40.2349 	0.1973 	-9.2756e-20
0.953125 	-0.96875 	0.5 	40.2264 	0.201241 	-6.14789e-20
0.96875 	-0.96875 	0.5 	40.2187 	0.204135 	8.28657e-21
0.984375 	-0.96875 	0.5 	40.2102 	0.206044 	4.58769e-20
1 	-0.96875 	0.5 	40.2017 	0.207944 	8.28282e-20
1.01562 	-0.96875 	0.5 	40.1933 	0.209251 	7.32688e-20
1.03125 	-0.96875 	0.5 	40.1853 	0.211056 	6.91063e-20
1.04688 	-0.96875 	0.5 	40.1771 	0.213086 	9.07546e-20
1.0625 	-0.96875 	0.5 	40.169 	0.215171 	1.04366e-19
1.07812 	-0.96875 	0.5 	40.1606 	0.216509 	6.08126e-20
1.09375 	-0.96875 	0.5 	40.1534 	0.215775 	-1.18487e-19
1.10938 	-0.96875 	0.5 	40.1459 	0.215084 	-1.01098e-19
1.125 	-0.96875 	0.5 	40.1382 	0.214523 	-4.62372e-20
1.14062 	-0.96875 	0.5 	40.1311 	0.213995 	2.5078e-20
1.15625 	-0.96875 	0.5 	40.1243 	0.213258 	5.79294e-20
1.17188 	-0.96875 	0.5 	40.1175 	0.212522 	9.07809e-20
1.1875 	-0.96875 	0.5 	40.1104 	0.211214 	9.80035e-20
1.20312 	-0.96875 	0.5 	40.1037 	0.209804 	9.82448e-20
1.21875 	-0.96875 	0.5 	40.097 	0.208501 	8.28174e-20
1.23438 	-0.96875 	0.5 	40.0901 	0.207435 	3.23171e-20
1.25 	-0.96875 	0.5 	40.0834 	0.20537 	1.49405e-21
1.26562 	-0.96875 	0.5 	40.0771 	0.20247 	4.13918e-22
1.28125 	-0.96875 	0.5 	40.0711 	0.200457 	-2.61019e-20
1.29688 	-0.96875 	0.5 	40.0656 	0.199329 	-1.2374e-19
1.3125 	-0.96875 	0.5 	40.0593 	0.196124 	-9.63413e-20
1.32812 	-0.96875 	0.5 	40.0544 	0.193627 	-1.27206e-19
1.34375 	-0.96875 	0.5 	40.0496 	0.190895 	-5.86682e-20
1.35938 	-0.96875 	0.5 	40.0449 	0.187759 	9.27817e-20
1.375 	-0.96875 	0.5 	40.0405 	0.184833 	6.79135e-20
1.39062 	-0.96875 	0.5 	40.0364 	0.181822 	2.49675e-19
1.40625 	-0.96875 	0.5 	40.032 	0.178942 	1.70822e-19
1.42188 	-0.96875 	0.5 	40.0277 	0.17609 	5.42471e-20
1.4375 	-0.96875 	0.5 	40.0235 	0.173087 	4.59965e-21
1.45312 	-0.96875 	0.5 	40.0194 	0.169787 	4.24674e-21
1.46875 	-0.96875 	0.5 	40.0155 	0.166549 	8.89136e-21
1.48438 	-0.96875 	0.5 	40.012 	0.163609 	-1.31843e-20
-0.5 	-0.953125 	0.5 	39.9368 	-0.257286 	-1.01529e-19
-0.484375 	-0.953125 	0.5 	39.9415 	-0.263192 	-1.9209e-20
-0.46875 	-0.953125 	0.5 	39.9457 	-0.26832 	7.41726e-21
-0.453125 	-0.953125 	0.5 	39.9512 	-0.272498 	5.96052e-20
-0.4375 	-0.953125 	0.5 	39.9562 	-0.278495 	1.00318e-19
-0.421875 	-0.953125 	0.5 	39.963 	-0.284704 	2.40796e-19
-0.40625 	-0.953125 	0.5 	39.9685 	-0.287966 	9.71569e-20
-0.390625 	-0.953125 	0.5 	39.9741 	-0.292192 	-8.62893e-20
-0.375 	-0.953125 	0.5 	39.9795 	-0.295647 	1.12221e-20
-0.359375 	-0.953125 	0.5 	39.9864 	-0.298681 	5.72148e-21
-0.34375 	-0.953125 	0.5 	39.9933 	-0.302719 	4.25503e-21
-0.328125 	-0.953125 	0.5 	40.0001 	-0.307261 	1.03736e-20
-0.3125 	-0.953125 	0.5 	40.0078 	-0.309636 	7.56906e-20
-0.296875 	-0.953125 	0.5 	40.0164 	-0.316901 	-2.17049e-21
-0.28125 	-0.953125 	0.5 	40.0224 	-0.31825 	-9.8488e-20
-0.265625 	-0.953125 	0.5 	40.0304 	-0.321803 	-4.62384e-20
-0.25 	-0.953125 	0.5 	40.038 	-0.32544 	-2.96107e-20
-0.234375 	-0.953125 	0.5 	40.0476 	-0.32753 	-5.33134e-20
-0.21875 	-0.953125 	0.5 	40.056 	-0.330169 	4.0979e-20
-0.203125 	-0.953125 	0.5 	40.0652 	-0.331735 	1.14885e-19
-0.1875 	-0.953125 	0.5 	40.0742 	-0.333306 	-1.57717e-21
-0.171875 	-0.953125 	0.5 	40.0836 	-0.335743 	-3.58175e-20
-0.15625 	-0.953125 	0.5 	40.0937 	-0.337567 	4.5684e-20
-0.140625 	-0.953125 	0.5 	40.1024 	-0.336863 	3.23011e-20
-0.125 	-0.953125 	0.5 	40.1118 	-0.337146 	9.76929e-22
-0.109375 	-0.953125 	0.5 	40.1216 	-0.33728 	-3.5612e-20
-0.09375 	-0.953125 	0.5 	40.1331 	-0.338379 	-6.24011e-20
-0.078125 	-0.953125 	0.5 	40.1435 	-0.33868 	-3.22101e-20
-0.0625 	-0.953125 	0.5 	40.1539 	-0.336937 	-2.41318e-20
-0.046875 	-0.953125 	0.5 	40.1638 	-0.335894 	4.2427e-20
-0.03125 	-0.953125 	0.5 	40.1738 	-0.33323 	-4.31561e-20
-0.015625 	-0.953125 	0.5 	40.1853 	-0.331144 	2.31113e-19
0 	-0.953125 	0.5 	40.1964 	-0.328616 	7.47942e-20
0.015625 	-0.953125 	0.5 	40.2066 	-0.323754 	-1.29901e-20
0.03125 	-0.953125 	0.5 	40.2176 	-0.320675 	5.9169e-20
0.046875 	-0.953125 	0.5 	40.2269 	-0.317093 	-5.28986e-21
0.0625 	-0.953125 	0.5 	40.2388 	-0.313531 	1.24573e-20
0.078125 	-0.953125 	0.5 	40.2478 	-0.307424 	4.50706e-19
0.09375 	-0.953125 	0.5 	40.2582 	-0.303229 	2.03513e-19
0.109375 	-0.953125 	0.5 	40.2691 	-0.297197 	9.05299e-20
0.125 	-0.953125 	0.5 	40.2797 	-0.290301 	3.79685e-20
0.140625 	-0.953125 	0.5 	40.2882 	-0.283607 	2.81555e-20
0.15625 	-0.953125 	0.5 	40.2977 	-0.275652 	1.33538e-20
0.171875 	-0.953125 	0.5 	40.3056 	-0.267379 	5.91391e-21
0.1875 	-0.953125 	0.5 	40.3143 	-0.260157 	-5.44003e-21
0.203125 	-0.953125 	0.5 	40.3234 	-0.25142 	4.18867e-21
0.21875 	-0.953125 	0.5 	40.3315 	-0.242257 	1.97492e-20
0.234375 	-0.953125 	0.5 	40.3396 	-0.233451 	3.63708e-20
0.25 	-0.953125 	0.5 	40.3471 	-0.223189 	9.48156e-20
0.265625 	-0.953125 	0.5 	40.3546 	-0.212301 	1.18826e-19
0.28125 	-0.953125 	0.5 	40.3621 	-0.202949 	-1.49532e-19
0.296875 	-0.953125 	0.5 	40.3683 	-0.192519 	-9.98215e-20
0.3125 	-0.953125 	0.5 	40.3751 	-0.180162 	-5.42891e-20
0.328125 	-0.953125 	0.5 	40.3814 	-0.169356 	1.73956e-20
0.34375 	-0.953125 	0.5 	40.3859 	-0.157576 	2.8748e-20
0.359375 	-0.953125 	0.5 	40.3882 	-0.145588 	1.76858e-20
0.375 	-0.953125 	0.5 	40.3903 	-0.133771 	-1.70349e-21
0.390625 	-0.953125 	0.5 	40.3962 	-0.123104 	-1.83232e-21
0.40625 	-0.953125 	0.5 	40.3993 	-0.111964 	2.2318e-20
0.421875 	-0.953125 	0.5 	40.4023 	-0.0995732 	7.08758e-22
0.4375 	-0.953125 	0.5 	40.4031 	-0.0872509 	9.76299e-20
0.453125 	-0.953125 	0.5 	40.404 	-0.0735463 	-1.75189e-20
0.46875 	-0.953125 	0.5 	40.4047 	-0.0618341 	-1.2645e-20
0.484375 	-0.953125 	0.5 	40.4048 	-0.0500491 	-9.10033e-22
0.5 	-0.953125 	0.5 	40.4049 	-0.0370763 	-7.73521e-20
0.515625 	-0.953125 	0.5 	40.4051 	-0.0234611 	-2.47785e-20
0.53125 	-0.953125 	0.5 	40.4019 	-0.0129362 	1.72168e-19
0.546875 	-0.953125 	0.5 	40.3996 	-0.000468277 	7.23523e-20
0.5625 	-0.953125 	0.5 	40.3983 	0.0100618 	-1.17413e-19
0.578125 	-0.953125 	0.5 	40.3979 	0.0215591 	-8.81551e-20
0.59375 	-0.953125 	0.5 	40.3929 	0.0337746 	-5.51008e-20
0.609375 	-0.953125 	0.5 	40.3882 	0.0469032 	-4.65572e-20
0.625 	-0.953125 	0.5 	40.3842 	0.0583103 	-1.95015e-20
0.640625 	-0.953125 	0.5 	40.3804 	0.0672984 	9.91023e-21
0.65625 	-0.953125 	0.5 	40.3763 	0.0778656 	-9.62495e-20
0.671875 	-0.953125 	0.5 	40.371 	0.0886479 	-3.80847e-20
0.6875 	-0.953125 	0.5 	40.3656 	0.0978622 	-4.24662e-20
0.703125 	-0.953125 	0.5 	40.36 	0.106827 	-3.57851e-20
0.71875 	-0.953125 	0.5 	40.3522 	0.116119 	-4.08945e-20
0.734375 	-0.953125 	0.5 	40.3442 	0.124892 	-2.80905e-20
0.75 	-0.953125 	0.5 	40.338 	0.133745 	-5.05374e-20
0.765625 	-0.953125 	0.5 	40.3302 	0.141934 	-1.59446e-20
0.78125 	-0.953125 	0.5 	40.323 	0.151231 	1.47266e-20
0.796875 	-0.953125 	0.5 	40.3147 	0.158875 	6.10002e-21
0.8125 	-0.953125 	0.5 	40.3065 	0.167147 	1.26494e-21
0.828125 	-0.953125 	0.5 	40.2992 	0.171257 	1.08928e-19
0.84375 	-0.953125 	0.5 	40.2918 	0.17726 	-3.11553e-20
0.859375 	-0.953125 	0.5 	40.2829 	0.183812 	-3.65161e-19
0.875 	-0.953125 	0.5 	40.2747 	0.187692 	-9.11418e-20
0.890625 	-0.953125 	0.5 	40.2654 	0.192813 	-9.13724e-20
0.90625 	-0.953125 	0.5 	40.2569 	0.198259 	6.55616e-20
0.921875 	-0.953125 	0.5 	40.249 	0.202983 	5.56071e-21
0.9375 	-0.953125 	0.5 	40.2404 	0.206648 	-7.03413e-21
0.953125 	-0.953125 	0.5 	40.2298 	0.209015 	-9.93866e-20
0.96875 	-0.953125 	0.5 	40.2211 	0.212383 	-3.0284e-20
0.984375 	-0.953125 	0.5 	40.2131 	0.214074 	-1.15464e-21
1 	-0.953125 	0.5 	40.2046 	0.215968 	3.56377e-20
1.01562 	-0.953125 	0.5 	40.1955 	0.218002 	1.09197e-19
1.03125 	-0.953125 	0.5 	40.1862 	0.21927 	1.17903e-19
1.04688 	-0.953125 	0.5 	40.1777 	0.221239 	1.84777e-19
1.0625 	-0.953125 	0.5 	40.1702 	0.223605 	6.50254e-20
1.07812 	-0.953125 	0.5 	40.1609 	0.223948 	1.04282e-19
1.09375 	-0.953125 	0.5 	40.1531 	0.22395 	-7.65142e-20
1.10938 	-0.953125 	0.5 	40.1458 	0.223118 	-9.96424e-20
1.125 	-0.953125 	0.5 	40.1381 	0.221196 	-7.52659e-20
1.14062 	-0.953125 	0.5 	40.1296 	0.222438 	-6.15502e-21
1.15625 	-0.953125 	0.5 	40.1233 	0.221768 	8.82568e-20
1.17188 	-0.953125 	0.5 	40.1162 	0.220736 	3.96382e-20
1.1875 	-0.953125 	0.5 	40.109 	0.219109 	3.71679e-20
1.20312 	-0.953125 	0.5 	40.1018 	0.217175 	1.04049e-19
1.21875 	-0.953125 	0.5 	40.095 	0.216095 	5.55918e-20
1.23438 	-0.953125 	0.5 	40.0873 	0.212858 	-1.06352e-19
1.25 	-0.953125 	0.5 	40.0811 	0.211277 	-1.31545e-20
1.26562 	-0.953125 	0.5 	40.0749 	0.209201 	-3.17187e-21
1.28125 	-0.953125 	0.5 	40.0688 	0.206966 	-1.26746e-20
1.29688 	-0.953125 	0.5 	40.0632 	0.204995 	-1.54605e-19
1.3125 	-0.953125 	0.5 	40.0569 	0.201796 	-1.43593e-19
1.32812 	-0.953125 	0.5 	40.0511 	0.198739 	-8.46352e-20
1.34375 	-0.953125 	0.5 	40.0462 	0.195986 	-7.21241e-21
1.35938 	-0.953125 	0.5 	40.0418 	0.19222 	2.26597e-19
1.375 	-0.953125 	0.5 	40.0374 	0.189456 	1.53738e-19
1.39062 	-0.953125 	0.5 	40.0331 	0.186803 	1.26184e-19
1.40625 	-0.953125 	0.5 	40.0288 	0.183905 	7.18413e-20
1.42188 	-0.953125 	0.5 	40.0243 	0.180669 	-1.10476e-19
1.4375 	-0.953125 	0.5 	40.0198 	0.177094 	-4.31662e-20
1.45312 	-0.953125 	0.5 	40.0162 	0.173478 	-9.55781e-21
1.46875 	-0.953125 	0.5 	40.0124 	0.170056 	2.80248e-20
1.48438 	-0.953125 	0.5 	40.0087 	0.166973 	1.03384e-20
-0.5 	-0.9375 	0.5 	39.932 	-0.262722 	-4.39118e-20
-0.484375 	-0.9375 	0.5 	39.9364 	-0.267931 	-1.65602e-20
-0.46875 	-0.9375 	0.5 	39.9408 	-0.273111 	1.05261e-20
-0.453125 	-0.9375 	0.5 	39.9451 	-0.278275 	3.74705e-20
-0.4375 	-0.9375 	0.5 	39.951 	-0.283069 	4.39978e-20
-0.421875 	-0.9375 	0.5 	39.9571 	-0.287667 	2.92197e-20
-0.40625 	-0.9375 	0.5 	39.9632 	-0.292269 	1.46534e-20
-0.390625 	-0.9375 	0.5 	39.9693 	-0.296937 	4.67262e-21
-0.375 	-0.9375 	0.5 	39.9759 	-0.301428 	2.98042e-21
-0.359375 	-0.9375 	0.5 	39.9828 	-0.305609 	3.66317e-21
-0.34375 	-0.9375 	0.5 	39.9897 	-0.309789 	4.34593e-21
-0.328125 	-0.9375 	0.5 	39.9964 	-0.314744 	1.66602e-20
-0.3125 	-0.9375 	0.5 	40.0045 	-0.316078 	1.00089e-19
-0.296875 	-0.9375 	0.5 	40.0131 	-0.322689 	4.07375e-20
-0.28125 	-0.9375 	0.5 	40.0212 	-0.328625 	-5.6638e-21
-0.265625 	-0.9375 	0.5 	40.0291 	-0.331318 	-4.10551e-21
-0.25 	-0.9375 	0.5 	40.0371 	-0.334011 	-2.54721e-21
-0.234375 	-0.9375 	0.5 	40.045 	-0.336704 	-9.88921e-22
-0.21875 	-0.9375 	0.5 	40.054 	-0.338544 	-1.63796e-20
-0.203125 	-0.9375 	0.5 	40.0642 	-0.341002 	-1.09635e-19
-0.1875 	-0.9375 	0.5 	40.0738 	-0.343442 	-1.53056e-19
-0.171875 	-0.9375 	0.5 	40.0817 	-0.345464 	-4.14839e-20
-0.15625 	-0.9375 	0.5 	40.0936 	-0.347776 	-1.30784e-20
-0.140625 	-0.9375 	0.5 	40.103 	-0.349468 	8.67726e-20
-0.125 	-0.9375 	0.5 	40.1125 	-0.349926 	2.35699e-20
-0.109375 	-0.9375 	0.5 	40.1218 	-0.349387 	-9.37458e-21
-0.09375 	-0.9375 	0.5 	40.136 	-0.350812 	-1.54347e-19
-0.078125 	-0.9375 	0.5 	40.1438 	-0.349222 	-1.83279e-20
-0.0625 	-0.9375 	0.5 	40.1542 	-0.347487 	-2.69247e-21
-0.046875 	-0.9375 	0.5 	40.1647 	-0.345731 	-9.54389e-21
-0.03125 	-0.9375 	0.5 	40.1764 	-0.345499 	-8.48949e-20
-0.015625 	-0.9375 	0.5 	40.1879 	-0.343059 	-4.57916e-20