-0.5 	-1 	0.5 	39.3564 	0.329282 	4.10808e-19
-0.484375 	-1 	0.5 	39.3515 	0.324221 	8.80744e-20
-0.46875 	-1 	0.5 	39.3469 	0.319319 	-2.48946e-20
-0.453125 	-1 	0.5 	39.3419 	0.313838 	-4.96624e-20
-0.4375 	-1 	0.5 	39.3371 	0.308472 	-3.39907e-19
-0.421875 	-1 	0.5 	39.3333 	0.303197 	-9.66967e-19
-0.40625 	-1 	0.5 	39.3296 	0.298065 	-1.95986e-18
-0.390625 	-1 	0.5 	39.3258 	0.293158 	-2.39822e-18
-0.375 	-1 	0.5 	39.3222 	0.287987 	-1.65343e-18
-0.359375 	-1 	0.5 	39.3188 	0.282668 	-5.86837e-19
-0.34375 	-1 	0.5 	39.3153 	0.276996 	4.24397e-19
-0.328125 	-1 	0.5 	39.3121 	0.270802 	8.7855e-19
-0.3125 	-1 	0.5 	39.3093 	0.265414 	-2.05316e-18
-0.296875 	-1 	0.5 	39.3064 	0.259714 	-2.86644e-18
-0.28125 	-1 	0.5 	39.3034 	0.253518 	-8.81909e-19
-0.265625 	-1 	0.5 	39.3006 	0.247798 	-1.10259e-18
-0.25 	-1 	0.5 	39.2977 	0.241882 	-1.08429e-19
-0.234375 	-1 	0.5 	39.2949 	0.236183 	3.41502e-19
-0.21875 	-1 	0.5 	39.2926 	0.230221 	1.77085e-19
-0.203125 	-1 	0.5 	39.2903 	0.224061 	8.14857e-20
-0.1875 	-1 	0.5 	39.2876 	0.218866 	9.17903e-19
-0.171875 	-1 	0.5 	39.2856 	0.213816 	1.11578e-18
-0.15625 	-1 	0.5 	39.2842 	0.207251 	1.36187e-19
-0.140625 	-1 	0.5 	39.2834 	0.201586 	1.32221e-19
-0.125 	-1 	0.5 	39.2815 	0.196555 	1.36446e-20
-0.109375 	-1 	0.5 	39.2801 	0.191211 	-4.14701e-19
-0.09375 	-1 	0.5 	39.2787 	0.185987 	-5.61375e-20
-0.078125 	-1 	0.5 	39.2778 	0.179922 	-7.33736e-20
-0.0625 	-1 	0.5 	39.2766 	0.174281 	-7.12102e-21
-0.046875 	-1 	0.5 	39.2748 	0.169315 	8.92753e-20
-0.03125 	-1 	0.5 	39.2744 	0.163663 	2.18353e-19
-0.015625 	-1 	0.5 	39.2735 	0.159092 	8.74707e-19
0 	-1 	0.5 	39.2729 	0.153785 	5.95454e-20
0.015625 	-1 	0.5 	39.2723 	0.149057 	-8.76717e-19
0.03125 	-1 	0.5 	39.2723 	0.144037 	-8.66388e-20
0.046875 	-1 	0.5 	39.2718 	0.138904 	1.69664e-19
0.0625 	-1 	0.5 	39.2711 	0.134755 	-5.52377e-20
0.078125 	-1 	0.5 	39.2701 	0.130112 	-6.26824e-19
0.09375 	-1 	0.5 	39.2688 	0.12609 	1.31565e-19
0.109375 	-1 	0.5 	39.268 	0.1217 	1.29972e-19
0.125 	-1 	0.5 	39.2673 	0.117821 	9.29878e-20
0.140625 	-1 	0.5 	39.2665 	0.113795 	7.91792e-20
0.15625 	-1 	0.5 	39.266 	0.109417 	1.36004e-19
0.171875 	-1 	0.5 	39.2654 	0.105408 	3.63429e-21
0.1875 	-1 	0.5 	39.2643 	0.101647 	-4.41685e-20
0.203125 	-1 	0.5 	39.2636 	0.0977788 	1.52451e-19
0.21875 	-1 	0.5 	39.2627 	0.0940281 	-1.73796e-18
0.234375 	-1 	0.5 	39.2617 	0.0897239 	-1.53827e-18
0.25 	-1 	0.5 	39.2604 	0.0853361 	-2.73054e-19
0.265625 	-1 	0.5 	39.2592 	0.0814396 	-4.89691e-19
0.28125 	-1 	0.5 	39.2579 	0.0770049 	-4.6137e-19
0.296875 	-1 	0.5 	39.2566 	0.0731955 	6.70484e-19
0.3125 	-1 	0.5 	39.2552 	0.069298 	1.01923e-18
0.328125 	-1 	0.5 	39.2538 	0.065398 	2.87188e-19
0.34375 	-1 	0.5 	39.2523 	0.0611525 	2.0106e-18
0.359375 	-1 	0.5 	39.2508 	0.0572633 	9.26525e-19
0.375 	-1 	0.5 	39.249 	0.0531523 	3.71057e-19
0.390625 	-1 	0.5 	39.2476 	0.0489801 	1.79559e-19
0.40625 	-1 	0.5 	39.2458 	0.0447538 	1.05949e-19
0.421875 	-1 	0.5 	39.2439 	0.0401838 	-1.06977e-19
0.4375 	-1 	0.5 	39.2418 	0.0354017 	-1.45119e-19
0.453125 	-1 	0.5 	39.24 	0.0308075 	-3.98312e-19
0.46875 	-1 	0.5 	39.2384 	0.025819 	-3.93952e-19
0.484375 	-1 	0.5 	39.2359 	0.0208743 	-1.44563e-18
0.5 	-1 	0.5 	39.2339 	0.0155193 	5.18773e-19
0.515625 	-1 	0.5 	39.2328 	0.0105806 	8.75541e-19
0.53125 	-1 	0.5 	39.2307 	0.00507147 	-1.42411e-18
0.546875 	-1 	0.5 	39.2289 	-2.26531e-05 	2.07767e-18
0.5625 	-1 	0.5 	39.2273 	-0.00696726 	4.21837e-19
0.578125 	-1 	0.5 	39.2244 	-0.0123683 	1.86689e-19
0.59375 	-1 	0.5 	39.2228 	-0.0186473 	1.01574e-19
0.609375 	-1 	0.5 	39.2202 	-0.0252932 	-2.74691e-19
0.625 	-1 	0.5 	39.219 	-0.0311957 	-4.65456e-19
0.640625 	-1 	0.5 	39.2178 	-0.0378755 	-1.28124e-18
0.65625 	-1 	0.5 	39.217 	-0.0446685 	-2.10103e-18
0.671875 	-1 	0.5 	39.2153 	-0.0512211 	-3.21092e-19
0.6875 	-1 	0.5 	39.2137 	-0.0584474 	-3.0666e-19
0.703125 	-1 	0.5 	39.2123 	-0.0660142 	7.14995e-19
0.71875 	-1 	0.5 	39.2123 	-0.0728029 	2.46492e-19
0.734375 	-1 	0.5 	39.2108 	-0.0801198 	7.41419e-20
0.75 	-1 	0.5 	39.2105 	-0.0879449 	1.37364e-19
0.765625 	-1 	0.5 	39.2104 	-0.0953421 	1.24916e-19
0.78125 	-1 	0.5 	39.2101 	-0.102915 	-4.7186e-19
0.796875 	-1 	0.5 	39.2098 	-0.110381 	-1.26924e-18
0.8125 	-1 	0.5 	39.2098 	-0.11804 	-2.42972e-19
0.828125 	-1 	0.5 	39.2101 	-0.12611 	-1.81158e-19
0.84375 	-1 	0.5 	39.2104 	-0.133858 	-7.2907e-20
0.859375 	-1 	0.5 	39.2113 	-0.142481 	3.26746e-19
0.875 	-1 	0.5 	39.2127 	-0.151071 	1.17505e-19
0.890625 	-1 	0.5 	39.2142 	-0.159617 	4.01176e-20
0.90625 	-1 	0.5 	39.2146 	-0.167707 	2.34779e-18
0.921875 	-1 	0.5 	39.2167 	-0.176927 	7.97359e-19
0.9375 	-1 	0.5 	39.2183 	-0.184954 	1.02805e-18
0.953125 	-1 	0.5 	39.2214 	-0.193338 	2.78541e-19
0.96875 	-1 	0.5 	39.224 	-0.202004 	-1.29368e-18
0.984375 	-1 	0.5 	39.2265 	-0.20998 	-3.97878e-19
1 	-1 	0.5 	39.2293 	-0.21848 	5.2081e-21
1.01562 	-1 	0.5 	39.2316 	-0.226771 	3.70678e-19
1.03125 	-1 	0.5 	39.2349 	-0.234632 	1.09755e-19
1.04688 	-1 	0.5 	39.2387 	-0.242045 	4.5205e-19
1.0625 	-1 	0.5 	39.2423 	-0.249941 	5.23209e-19
1.07812 	-1 	0.5 	39.2468 	-0.258191 	4.52039e-19
1.09375 	-1 	0.5 	39.251 	-0.265735 	1.35805e-19
1.10938 	-1 	0.5 	39.2555 	-0.274629 	2.21449e-19
1.125 	-1 	0.5 	39.2596 	-0.282603 	1.59897e-19
1.14062 	-1 	0.5 	39.2643 	-0.289065 	6.12834e-19
1.15625 	-1 	0.5 	39.2682 	-0.297123 	-2.10239e-19
1.17188 	-1 	0.5 	39.273 	-0.305052 	-5.82797e-19
1.1875 	-1 	0.5 	39.2788 	-0.311621 	-2.08513e-19
1.20312 	-1 	0.5 	39.2848 	-0.317878 	1.32322e-19
1.21875 	-1 	0.5 	39.2909 	-0.324183 	2.77683e-19
1.23438 	-1 	0.5 	39.2967 	-0.331054 	7.31167e-20
1.25 	-1 	0.5 	39.3024 	-0.338062 	-1.40713e-19
1.26562 	-1 	0.5 	39.3083 	-0.345339 	-4.81884e-19
1.28125 	-1 	0.5 	39.3154 	-0.351156 	1.53433e-19
1.29688 	-1 	0.5 	39.3227 	-0.356962 	2.52902e-19
1.3125 	-1 	0.5 	39.3298 	-0.362407 	-4.12567e-20
1.32812 	-1 	0.5 	39.3355 	-0.367244 	-1.39412e-18
1.34375 	-1 	0.5 	39.3412 	-0.372282 	-1.8086e-18
1.35938 	-1 	0.5 	39.3473 	-0.377769 	-1.40556e-18
1.375 	-1 	0.5 	39.3552 	-0.383128 	1.07388e-18
1.39062 	-1 	0.5 	39.3626 	-0.388161 	5.51294e-19
1.40625 	-1 	0.5 	39.3698 	-0.392956 	1.02689e-19
1.42188 	-1 	0.5 	39.3769 	-0.396963 	3.92851e-20
1.4375 	-1 	0.5 	39.3845 	-0.402314 	9.05941e-21
1.45312 	-1 	0.5 	39.3926 	-0.405966 	-5.07918e-20
1.46875 	-1 	0.5 	39.3998 	-0.409434 	-5.17461e-19
1.48438 	-1 	0.5 	39.4064 	-0.414532 	-3.92669e-19
-0.5 	-0.984375 	0.5 	39.35 	0.333777 	1.87547e-18
-0.484375 	-0.984375 	0.5 	39.3449 	0.328582 	4.57419e-19
-0.46875 	-0.984375 	0.5 	39.3406 	0.324368 	1.06293e-19
-0.453125 	-0.984375 	0.5 	39.3353 	0.318169 	1.9101e-19
-0.4375 	-0.984375 	0.5 	39.3308 	0.31276 	8.12776e-19
-0.421875 	-0.984375 	0.5 	39.3268 	0.309349 	-2.09017e-18
-0.40625 	-0.984375 	0.5 	39.3229 	0.304083 	-2.5108e-18
-0.390625 	-0.984375 	0.5 	39.3188 	0.297807 	-2.02744e-18
-0.375 	-0.984375 	0.5 	39.3152 	0.291835 	-1.30006e-18
-0.359375 	-0.984375 	0.5 	39.3119 	0.286541 	-1.7996e-19
-0.34375 	-0.984375 	0.5 	39.3083 	0.280516 	7.29562e-19
-0.328125 	-0.984375 	0.5 	39.305 	0.273996 	2.77726e-18
-0.3125 	-0.984375 	0.5 	39.302 	0.268281 	8.058e-19
-0.296875 	-0.984375 	0.5 	39.2992 	0.262835 	-2.00106e-18
-0.28125 	-0.984375 	0.5 	39.2963 	0.256844 	-1.07354e-18
-0.265625 	-0.984375 	0.5 	39.2934 	0.250972 	-3.4627e-19
-0.25 	-0.984375 	0.5 	39.2901 	0.244901 	9.23583e-20
-0.234375 	-0.984375 	0.5 	39.2875 	0.238498 	6.88218e-19
-0.21875 	-0.984375 	0.5 	39.2856 	0.232264 	1.40996e-19
-0.203125 	-0.984375 	0.5 	39.2833 	0.226407 	-1.63711e-20
-0.1875 	-0.984375 	0.5 	39.2807 	0.220522 	5.58929e-19
-0.171875 	-0.984375 	0.5 	39.2789 	0.214826 	3.22293e-19
-0.15625 	-0.984375 	0.5 	39.277 	0.209146 	-7.3854e-19
-0.140625 	-0.984375 	0.5 	39.2755 	0.20272 	-4.08395e-20
-0.125 	-0.984375 	0.5 	39.2736 	0.197676 	-2.05131e-19
-0.109375 	-0.984375 	0.5 	39.2735 	0.191784 	-8.59355e-19
-0.09375 	-0.984375 	0.5 	39.272 	0.186753 	-4.43107e-19
-0.078125 	-0.984375 	0.5 	39.2706 	0.181234 	-2.43976e-19
-0.0625 	-0.984375 	0.5 	39.2695 	0.175696 	-1.05274e-19
-0.046875 	-0.984375 	0.5 	39.268 	0.170548 	4.57783e-21
-0.03125 	-0.984375 	0.5 	39.2666 	0.165477 	2.82741e-19
-0.015625 	-0.984375 	0.5 	39.2668 	0.160051 	1.07459e-18
0 	-0.984375 	0.5 	39.2665 	0.154655 	9.34835e-19
0.015625 	-0.984375 	0.5 	39.2658 	0.149692 	-1.39672e-19
0.03125 	-0.984375 	0.5 	39.2651 	0.144973 	7.70486e-20
0.046875 	-0.984375 	0.5 	39.265 	0.139681 	9.6277e-20
0.0625 	-0.984375 	0.5 	39.2638 	0.133569 	2.31558e-21
0.078125 	-0.984375 	0.5 	39.2634 	0.1303 	7.99102e-20
0.09375 	-0.984375 	0.5 	39.2629 	0.126506 	2.66796e-19
0.109375 	-0.984375 	0.5 	39.2624 	0.122403 	8.38843e-19
0.125 	-0.984375 	0.5 	39.2616 	0.118456 	1.72567e-19
0.140625 	-0.984375 	0.5 	39.2608 	0.114478 	1.4078e-19
0.15625 	-0.984375 	0.5 	39.2602 	0.110237 	1.61204e-19
0.171875 	-0.984375 	0.5 	39.2596 	0.106235 	7.96576e-20
0.1875 	-0.984375 	0.5 	39.2592 	0.102127 	-2.88485e-21
0.203125 	-0.984375 	0.5 	39.2579 	0.0987674 	4.29e-19
0.21875 	-0.984375 	0.5 	39.2576 	0.0945769 	6.46998e-19
0.234375 	-0.984375 	0.5 	39.2563 	0.0907831 	-8.53201e-19
0.25 	-0.984375 	0.5 	39.2548 	0.086507 	4.38295e-20
0.265625 	-0.984375 	0.5 	39.2538 	0.0825955 	8.06482e-20
0.28125 	-0.984375 	0.5 	39.2525 	0.0788061 	-5.73747e-20
0.296875 	-0.984375 	0.5 	39.2512 	0.0747344 	1.95277e-18
0.3125 	-0.984375 	0.5 	39.2496 	0.0711824 	-1.66234e-19
0.328125 	-0.984375 	0.5 	39.2489 	0.0673549 	-2.2353e-18
0.34375 	-0.984375 	0.5 	39.2469 	0.0629859 	7.84153e-19
0.359375 	-0.984375 	0.5 	39.2453 	0.0590025 	2.57049e-19
0.375 	-0.984375 	0.5 	39.2434 	0.0547686 	1.21652e-19
0.390625 	-0.984375 	0.5 	39.242 	0.0505237 	6.11578e-20
0.40625 	-0.984375 	0.5 	39.2399 	0.046166 	1.27433e-19
0.421875 	-0.984375 	0.5 	39.2378 	0.0423309 	-5.70317e-19
0.4375 	-0.984375 	0.5 	39.2368 	0.0367419 	-2.43507e-19
0.453125 	-0.984375 	0.5 	39.2353 	0.032272 	-1.35327e-19
0.46875 	-0.984375 	0.5 	39.2328 	0.027736 	-4.303e-19
0.484375 	-0.984375 	0.5 	39.2305 	0.0229015 	-1.64736e-18
0.5 	-0.984375 	0.5 	39.2283 	0.0177951 	-1.45964e-18
0.515625 	-0.984375 	0.5 	39.2263 	0.0124868 	-5.89279e-20
0.53125 	-0.984375 	0.5 	39.2244 	0.00685246 	-1.42308e-18
0.546875 	-0.984375 	0.5 	39.2231 	0.0015843 	-2.31218e-19
0.5625 	-0.984375 	0.5 	39.2209 	-0.00468592 	3.36506e-19
0.578125 	-0.984375 	0.5 	39.2178 	-0.0110071 	9.82334e-20
0.59375 	-0.984375 	0.5 	39.2156 	-0.0166193 	1.12401e-19
0.609375 	-0.984375 	0.5 	39.2137 	-0.0227674 	-1.09198e-19
0.625 	-0.984375 	0.5 	39.212 	-0.0286666 	2.88353e-19
0.640625 	-0.984375 	0.5 	39.212 	-0.0366117 	1.67116e-18
0.65625 	-0.984375 	0.5 	39.2088 	-0.0432471 	-1.37782e-18
0.671875 	-0.984375 	0.5 	39.207 	-0.049823 	-2.65312e-19
0.6875 	-0.984375 	0.5 	39.2047 	-0.0567528 	-6.40487e-19
0.703125 	-0.984375 	0.5 	39.2042 	-0.0644698 	1.86502e-20
0.71875 	-0.984375 	0.5 	39.2037 	-0.0720618 	4.16045e-19
0.734375 	-0.984375 	0.5 	39.2025 	-0.0790058 	1.85157e-19
0.75 	-0.984375 	0.5 	39.2015 	-0.0866074 	2.34988e-19
0.765625 	-0.984375 	0.5 	39.2008 	-0.0957191 	1.48672e-18
0.78125 	-0.984375 	0.5 	39.2004 	-0.102765 	-7.48144e-19
0.796875 	-0.984375 	0.5 	39.2 	-0.110188 	-8.53143e-19
0.8125 	-0.984375 	0.5 	39.2003 	-0.118024 	-5.5149e-20
0.828125 	-0.984375 	0.5 	39.2006 	-0.126472 	-1.53756e-19
0.84375 	-0.984375 	0.5 	39.2009 	-0.134642 	-1.80122e-19
0.859375 	-0.984375 	0.5 	39.2022 	-0.143482 	1.56102e-19
0.875 	-0.984375 	0.5 	39.2037 	-0.152286 	2.4212e-19
0.890625 	-0.984375 	0.5 	39.2051 	-0.161008 	3.60191e-19
0.90625 	-0.984375 	0.5 	39.2063 	-0.169605 	8.11705e-19
0.921875 	-0.984375 	0.5 	39.2074 	-0.178164 	1.39048e-18
0.9375 	-0.984375 	0.5 	39.209 	-0.188228 	1.14573e-18
0.953125 	-0.984375 	0.5 	39.2114 	-0.196336 	-1.47825e-18
0.96875 	-0.984375 	0.5 	39.214 	-0.204543 	-1.59554e-18
0.984375 	-0.984375 	0.5 	39.2162 	-0.212312 	-4.7144e-19
1 	-0.984375 	0.5 	39.219 	-0.220701 	-2.88929e-19
1.01562 	-0.984375 	0.5 	39.2222 	-0.22959 	3.10797e-19
1.03125 	-0.984375 	0.5 	39.2255 	-0.237658 	-3.88378e-19
1.04688 	-0.984375 	0.5 	39.2289 	-0.245956 	4.42722e-19
1.0625 	-0.984375 	0.5 	39.2327 	-0.253825 	4.79618e-21
1.07812 	-0.984375 	0.5 	39.2372 	-0.261634 	2.14685e-19
1.09375 	-0.984375 	0.5 	39.2419 	-0.270724 	6.39634e-19
1.10938 	-0.984375 	0.5 	39.2475 	-0.279488 	1.96422e-19
1.125 	-0.984375 	0.5 	39.2511 	-0.287609 	9.00703e-20
1.14062 	-0.984375 	0.5 	39.2555 	-0.294383 	3.83712e-19
1.15625 	-0.984375 	0.5 	39.2595 	-0.302563 	-2.68637e-19
1.17188 	-0.984375 	0.5 	39.2648 	-0.310275 	-2.9594e-19
1.1875 	-0.984375 	0.5 	39.2706 	-0.317669 	-3.8449e-20
1.20312 	-0.984375 	0.5 	39.2767 	-0.323398 	2.28977e-19
1.21875 	-0.984375 	0.5 	39.2827 	-0.331527 	2.0683e-19
1.23438 	-0.984375 	0.5 	39.2891 	-0.337639 	-4.34402e-20
1.25 	-0.984375 	0.5 	39.2948 	-0.344784 	-2.66569e-19
1.26562 	-0.984375 	0.5 	39.3017 	-0.352619 	-1.06722e-18
1.28125 	-0.984375 	0.5 	39.308 	-0.357614 	4.64487e-19
1.29688 	-0.984375 	0.5 	39.3152 	-0.363834 	1.12526e-18
1.3125 	-0.984375 	0.5 	39.3218 	-0.368366 	-2.95627e-20
1.32812 	-0.984375 	0.5 	39.3293 	-0.375177 	-1.05486e-19
1.34375 	-0.984375 	0.5 	39.3344 	-0.379488 	-1.84762e-18
1.35938 	-0.984375 	0.5 	39.3419 	-0.385568 	6.81302e-19
1.375 	-0.984375 	0.5 	39.3501 	-0.389707 	1.88141e-18
1.39062 	-0.984375 	0.5 	39.3574 	-0.394477 	1.11454e-18
1.40625 	-0.984375 	0.5 	39.3651 	-0.399848 	7.68016e-19
1.42188 	-0.984375 	0.5 	39.3722 	-0.405692 	1.07424e-19
1.4375 	-0.984375 	0.5 	39.3804 	-0.409414 	5.41159e-20
1.45312 	-0.984375 	0.5 	39.3885 	-0.413101 	-6.93659e-21
1.46875 	-0.984375 	0.5 	39.3958 	-0.416955 	-2.86439e-19
1.48438 	-0.984375 	0.5 	39.4011 	-0.423301 	6.90384e-19
-0.5 	-0.96875 	0.5 	39.3436 	0.338596 	1.20304e-18
-0.484375 	-0.96875 	0.5 	39.3385 	0.333182 	1.23395e-18
-0.46875 	-0.96875 	0.5 	39.3338 	0.328337 	4.02193e-19
-0.453125 	-0.96875 	0.5 	39.3295 	0.322722 	1.51314e-18
-0.4375 	-0.96875 	0.5 	39.325 	0.317333 	2.02614e-18
-0.421875 	-0.96875 	0.5 	39.3193 	0.312508 	-7.50748e-19
-0.40625 	-0.96875 	0.5 	39.3158 	0.308353 	-2.16549e-18
-0.390625 	-0.96875 	0.5 	39.3118 	0.301423 	-1.51964e-18
-0.375 	-0.96875 	0.5 	39.3084 	0.295364 	-1.32377e-18
-0.359375 	-0.96875 	0.5 	39.3048 	0.289736 	3.1524e-20
-0.34375 	-0.96875 	0.5 	39.3013 	0.284036 	1.03473e-18
-0.328125 	-0.96875 	0.5 	39.2981 	0.277687 	2.21162e-18
-0.3125 	-0.96875 	0.5 	39.2951 	0.271863 	7.83353e-19
-0.296875 	-0.96875 	0.5 	39.292 	0.266006 	-6.0187e-19
-0.28125 	-0.96875 	0.5 	39.2887 	0.259748 	-6.61725e-19
-0.265625 	-0.96875 	0.5 	39.2854 	0.253698 	-2.42914e-19
-0.25 	-0.96875 	0.5 	39.2822 	0.247434 	6.93232e-20
-0.234375 	-0.96875 	0.5 	39.2797 	0.240876 	6.11298e-19
-0.21875 	-0.96875 	0.5 	39.2779 	0.23448 	8.29839e-19
-0.203125 	-0.96875 	0.5 	39.2762 	0.228044 	3.03777e-20
-0.1875 	-0.96875 	0.5 	39.2737 	0.222178 	1.99955e-19
-0.171875 	-0.96875 	0.5 	39.2719 	0.216746 	-8.51027e-19
-0.15625 	-0.96875 	0.5 	39.2698 	0.210564 	-8.83711e-19
-0.140625 	-0.96875 	0.5 	39.2678 	0.204006 	-3.4184e-19
-0.125 	-0.96875 	0.5 	39.2666 	0.198479 	-3.63267e-19
-0.109375 	-0.96875 	0.5 	39.2655 	0.193216 	-1.72185e-19
-0.09375 	-0.96875 	0.5 	39.2643 	0.187988 	1.43164e-19
-0.078125 	-0.96875 	0.5 	39.2634 	0.182075 	-5.84126e-19
-0.0625 	-0.96875 	0.5 	39.2618 	0.176725 	-1.41443e-18
-0.046875 	-0.96875 	0.5 	39.2603 	0.171191 	-7.11354e-19
-0.03125 	-0.96875 	0.5 	39.2602 	0.165963 	8.56626e-20
-0.015625 	-0.96875 	0.5 	39.2605 	0.160646 	2.84517e-20
0 	-0.96875 	0.5 	39.2599 	0.15539 	1.18578e-19
0.015625 	-0.96875 	0.5 	39.2591 	0.150465 	-1.18658e-20
0.03125 	-0.96875 	0.5 	39.2585 	0.145448 	8.773e-20
0.046875 	-0.96875 	0.5 	39.2579 	0.140609 	-9.32526e-22
0.0625 	-0.96875 	0.5 	39.2575 	0.135913 	1.22682e-19
0.078125 	-0.96875 	0.5 	39.257 	0.131175 	6.77473e-19
0.09375 	-0.96875 	0.5 	39.2571 	0.127332 	-2.95271e-19
0.109375 	-0.96875 	0.5 	39.2564 	0.12305 	6.33095e-19
0.125 	-0.96875 	0.5 	39.2558 	0.118741 	2.78506e-18
0.140625 	-0.96875 	0.5 	39.255 	0.114959 	6.35417e-19
0.15625 	-0.96875 	0.5 	39.2545 	0.110798 	1.27751e-19
0.171875 	-0.96875 	0.5 	39.2535 	0.107378 	2.07139e-19
0.1875 	-0.96875 	0.5 	39.2528 	0.103623 	2.09269e-19
0.203125 	-0.96875 	0.5 	39.2522 	0.099756 	7.05549e-19
0.21875 	-0.96875 	0.5 	39.2513 	0.0957689 	3.26026e-19
0.234375 	-0.96875 	0.5 	39.2508 	0.0915539 	9.44887e-20
0.25 	-0.96875 	0.5 	39.2494 	0.0876385 	3.94031e-20
0.265625 	-0.96875 	0.5 	39.2483 	0.0836163 	-1.05172e-20
0.28125 	-0.96875 	0.5 	39.2473 	0.0800041 	-9.45212e-19
0.296875 	-0.96875 	0.5 	39.2456 	0.0765052 	-4.50748e-19
0.3125 	-0.96875 	0.5 	39.2441 	0.0727287 	2.65966e-19
0.328125 	-0.96875 	0.5 	39.2429 	0.0685139 	6.08631e-19
0.34375 	-0.96875 	0.5 	39.2415 	0.0645877 	4.5358e-19
0.359375 	-0.96875 	0.5 	39.2396 	0.060615 	5.21342e-19
0.375 	-0.96875 	0.5 	39.2375 	0.0562208 	3.15668e-19
0.390625 	-0.96875 	0.5 	39.2357 	0.0518578 	3.15998e-19
0.40625 	-0.96875 	0.5 	39.2342 	0.0475079 	7.05001e-19
0.421875 	-0.96875 	0.5 	39.2323 	0.0432918 	2.68333e-19
0.4375 	-0.96875 	0.5 	39.2307 	0.0382617 	-2.27475e-19
0.453125 	-0.96875 	0.5 	39.2288 	0.0328974 	-1.59172e-19
0.46875 	-0.96875 	0.5 	39.2268 	0.0295466 	-1.31213e-19
0.484375 	-0.96875 	0.5 	39.2245 	0.0248037 	-3.56524e-19
0.5 	-0.96875 	0.5 	39.2221 	0.0198046 	-3.47465e-19
0.515625 	-0.96875 	0.5 	39.2199 	0.0144641 	-6.88124e-19
0.53125 	-0.96875 	0.5 	39.2167 	0.00959371 	1.30289e-18
0.546875 	-0.96875 	0.5 	39.2153 	0.00413203 	1.55322e-18
0.5625 	-0.96875 	0.5 	39.2128 	-0.00359937 	4.28978e-19
0.578125 	-0.96875 	0.5 	39.2101 	-0.00944013 	2.52718e-19
0.59375 	-0.96875 	0.5 	39.2085 	-0.0145477 	-1.34497e-20
0.609375 	-0.96875 	0.5 	39.2065 	-0.0204919 	8.05797e-19
0.625 	-0.96875 	0.5 	39.2049 	-0.0272135 	1.04713e-18
0.640625 	-0.96875 	0.5 	39.2034 	-0.03427 	1.2235e-18
0.65625 	-0.96875 	0.5 	39.2017 	-0.0417984 	1.03389e-18
0.671875 	-0.96875 	0.5 	39.1988 	-0.0484862 	-1.29041e-19
0.6875 	-0.96875 	0.5 	39.1977 	-0.0556634 	5.91104e-19
0.703125 	-0.96875 	0.5 	39.1958 	-0.0623747 	1.22073e-18
0.71875 	-0.96875 	0.5 	39.1943 	-0.0696538 	6.58085e-19
0.734375 	-0.96875 	0.5 	39.1933 	-0.0778155 	7.55989e-19
0.75 	-0.96875 	0.5 	39.1923 	-0.0857506 	6.44541e-19
0.765625 	-0.96875 	0.5 	39.1915 	-0.0946117 	1.52561e-18
0.78125 	-0.96875 	0.5 	39.1908 	-0.102661 	1.12874e-18
0.796875 	-0.96875 	0.5 	39.1901 	-0.109978 	-1.89226e-19
0.8125 	-0.96875 	0.5 	39.1905 	-0.118277 	-1.1103e-19
0.828125 	-0.96875 	0.5 	39.1909 	-0.126521 	-1.16851e-19
0.84375 	-0.96875 	0.5 	39.1916 	-0.135317 	-3.2534e-19
0.859375 	-0.96875 	0.5 	39.1923 	-0.144696 	-4.96394e-19
0.875 	-0.96875 	0.5 	39.1934 	-0.1535 	-4.77752e-19
0.890625 	-0.96875 	0.5 	39.1949 	-0.163167 	-1.42985e-18
0.90625 	-0.96875 	0.5 	39.1964 	-0.170817 	5.27345e-19
0.921875 	-0.96875 	0.5 	39.1975 	-0.179338 	1.30829e-18
0.9375 	-0.96875 	0.5 	39.1993 	-0.190529 	1.53367e-18
0.953125 	-0.96875 	0.5 	39.2015 	-0.199387 	1.40558e-18
0.96875 	-0.96875 	0.5 	39.2039 	-0.206714 	-7.61659e-19
0.984375 	-0.96875 	0.5 	39.2063 	-0.214669 	-5.93895e-22
1 	-0.96875 	0.5 	39.2097 	-0.223922 	5.28757e-19
1.01562 	-0.96875 	0.5 	39.2129 	-0.233376 	5.82979e-19
1.03125 	-0.96875 	0.5 	39.2159 	-0.240727 	-1.04081e-18
1.04688 	-0.96875 	0.5 	39.2195 	-0.248851 	-1.11045e-18
1.0625 	-0.96875 	0.5 	39.2232 	-0.257995 	-4.53182e-20
1.07812 	-0.96875 	0.5 	39.2271 	-0.266328 	9.25055e-19
1.09375 	-0.96875 	0.5 	39.2322 	-0.276104 	1.17561e-18
1.10938 	-0.96875 	0.5 	39.2371 	-0.284385 	8.89785e-19
1.125 	-0.96875 	0.5 	39.2425 	-0.292286 	1.83004e-19
1.14062 	-0.96875 	0.5 	39.2465 	-0.299986 	3.38594e-20
1.15625 	-0.96875 	0.5 	39.2515 	-0.30772 	5.89868e-20
1.17188 	-0.96875 	0.5 	39.2568 	-0.315434 	3.81354e-20
1.1875 	-0.96875 	0.5 	39.2626 	-0.323026 	5.76744e-20
1.20312 	-0.96875 	0.5 	39.2684 	-0.330916 	1.79156e-19
1.21875 	-0.96875 	0.5 	39.2747 	-0.338456 	8.60175e-20
1.23438 	-0.96875 	0.5 	39.2815 	-0.34453 	-1.80693e-19
1.25 	-0.96875 	0.5 	39.2877 	-0.35194 	-6.79761e-19
1.26562 	-0.96875 	0.5 	39.295 	-0.3599 	-1.65255e-18
1.28125 	-0.96875 	0.5 	39.3009 	-0.363737 	-4.03745e-19
1.29688 	-0.96875 	0.5 	39.3079 	-0.369739 	6.88615e-19
1.3125 	-0.96875 	0.5 	39.3139 	-0.374374 	-1.44918e-20
1.32812 	-0.96875 	0.5 	39.3213 	-0.381264 	1.91357e-19
1.34375 	-0.96875 	0.5 	39.3287 	-0.387881 	2.80033e-19
1.35938 	-0.96875 	0.5 	39.3372 	-0.391711 	1.95129e-18
1.375 	-0.96875 	0.5 	39.3447 	-0.396706 	2.24408e-18
1.39062 	-0.96875 	0.5 	39.3514 	-0.402113 	1.04289e-18
1.40625 	-0.96875 	0.5 	39.3588 	-0.408128 	3.87068e-19
1.42188 	-0.96875 	0.5 	39.3663 	-0.413736 	-1.82046e-19
1.4375 	-0.96875 	0.5 	39.3738 	-0.418594 	3.64092e-20
1.45312 	-0.96875 	0.5 	39.3826 	-0.421735 	-9.04607e-21
1.46875 	-0.96875 	0.5 	39.3915 	-0.424699 	-5.48354e-20
1.48438 	-0.96875 	0.5 	39.3979 	-0.427976 	-5.24035e-19
-0.5 	-0.953125 	0.5 	39.3371 	0.343714 	-1.62501e-19
-0.484375 	-0.953125 	0.5 	39.332 	0.338104 	3.55024e-19
-0.46875 	-0.953125 	0.5 	39.3272 	0.332588 	8.90359e-19
-0.453125 	-0.953125 	0.5 	39.3228 	0.327199 	1.38881e-18
-0.4375 	-0.953125 	0.5 	39.3183 	0.321809 	1.88726e-18
-0.421875 	-0.953125 	0.5 	39.3125 	0.316287 	5.33437e-19
-0.40625 	-0.953125 	0.5 	39.3084 	0.311685 	-9.80941e-19
-0.390625 	-0.953125 	0.5 	39.3049 	0.305137 	-1.24636e-18
-0.375 	-0.953125 	0.5 	39.3014 	0.299205 	-6.25893e-19
-0.359375 	-0.953125 	0.5 	39.2979 	0.293358 	2.7523e-19
-0.34375 	-0.953125 	0.5 	39.2943 	0.28754 	1.40772e-18
-0.328125 	-0.953125 	0.5 	39.2907 	0.281403 	4.04521e-19
-0.3125 	-0.953125 	0.5 	39.287 	0.275205 	-5.26337e-19
-0.296875 	-0.953125 	0.5 	39.2836 	0.268928 	-6.69453e-19
-0.28125 	-0.953125 	0.5 	39.2808 	0.261979 	-8.45875e-19
-0.265625 	-0.953125 	0.5 	39.2777 	0.255857 	-4.52779e-19
-0.25 	-0.953125 	0.5 	39.2744 	0.249803 	-3.54836e-20
-0.234375 	-0.953125 	0.5 	39.2719 	0.243253 	5.34379e-19
-0.21875 	-0.953125 	0.5 	39.2701 	0.236874 	9.73965e-19
-0.203125 	-0.953125 	0.5 	39.2684 	0.230415 	3.33367e-19
-0.1875 	-0.953125 	0.5 	39.2665 	0.223931 	-1.25249e-19
-0.171875 	-0.953125 	0.5 	39.2643 	0.218236 	-2.07969e-19
-0.15625 	-0.953125 	0.5 	39.2621 	0.212381 	-2.98003e-19
-0.140625 	-0.953125 	0.5 	39.2606 	0.205795 	-2.91116e-19
-0.125 	-0.953125 	0.5 	39.2585 	0.199351 	2.16547e-20
-0.109375 	-0.953125 	0.5 	39.2572 	0.194547 	9.97682e-19
-0.09375 	-0.953125 	0.5 	39.2563 	0.188475 	-8.06103e-20
-0.078125 	-0.953125 	0.5 	39.2556 	0.182615 	-3.70427e-19
-0.0625 	-0.953125 	0.5 	39.2543 	0.176796 	-1.48182e-18
-0.046875 	-0.953125 	0.5 	39.2537 	0.171496 	-2.54086e-19
-0.03125 	-0.953125 	0.5 	39.254 	0.166451 	6.37383e-20
-0.015625 	-0.953125 	0.5 	39.254 	0.1609 	1.06721e-19
0 	-0.953125 	0.5 	39.2534 	0.155705 	4.08951e-19
0.015625 	-0.953125 	0.5 	39.2532 	0.150661 	2.2977e-19
0.03125 	-0.953125 	0.5 	39.252 	0.146723 	-9.20141e-19
0.046875 	-0.953125 	0.5 	39.2519 	0.140951 	-3.43622e-21
0.0625 	-0.953125 	0.5 	39.2516 	0.136574 	-9.42854e-20
0.078125 	-0.953125 	0.5 	39.2511 	0.131801 	4.89095e-19
0.09375 	-0.953125 	0.5 	39.2513 	0.128191 	-9.43609e-19
0.109375 	-0.953125 	0.5 	39.2506 	0.123974 	-4.08896e-19
0.125 	-0.953125 	0.5 	39.2497 	0.119652 	4.29555e-19
0.140625 	-0.953125 	0.5 	39.2493 	0.115581 	-2.07081e-18
0.15625 	-0.953125 	0.5 	39.2491 	0.110893 	-9.02956e-21
0.171875 	-0.953125 	0.5 	39.248 	0.107462 	4.10643e-20
0.1875 	-0.953125 	0.5 	39.2472 	0.104045 	1.62139e-19
0.203125 	-0.953125 	0.5 	39.2466 	0.100611 	2.56529e-19
0.21875 	-0.953125 	0.5 	39.2463 	0.0960099 	3.22521e-20
0.234375 	-0.953125 	0.5 	39.2456 	0.0923695 	3.3978e-19
0.25 	-0.953125 	0.5 	39.2442 	0.0886297 	6.01783e-19
0.265625 	-0.953125 	0.5 	39.2432 	0.0847135 	-8.64357e-20
0.28125 	-0.953125 	0.5 	39.2419 	0.0811697 	-5.55572e-20
0.296875 	-0.953125 	0.5 	39.2406 	0.0777529 	2.41305e-20
0.3125 	-0.953125 	0.5 	39.2392 	0.0743204 	-4.9011e-19
0.328125 	-0.953125 	0.5 	39.2379 	0.0696894 	1.08361e-18
0.34375 	-0.953125 	0.5 	39.2363 	0.066227 	2.09471e-19
0.359375 	-0.953125 	0.5 	39.2346 	0.0627172 	4.23926e-19
0.375 	-0.953125 	0.5 	39.2324 	0.0583826 	5.30191e-19
0.390625 	-0.953125 	0.5 	39.2306 	0.0543212 	7.56271e-20
0.40625 	-0.953125 	0.5 	39.2283 	0.0493017 	-1.02255e-18
0.421875 	-0.953125 	0.5 	39.2264 	0.0449309 	-6.28321e-19
0.4375 	-0.953125 	0.5 	39.2243 	0.0406259 	1.60293e-21
0.453125 	-0.953125 	0.5 	39.2224 	0.0358052 	9.12699e-19
0.46875 	-0.953125 	0.5 	39.2202 	0.0322778 	2.59663e-20
0.484375 	-0.953125 	0.5 	39.2181 	0.0269682 	-5.44258e-19
0.5 	-0.953125 	0.5 	39.2156 	0.0219964 	-4.69396e-19
0.515625 	-0.953125 	0.5 	39.2134 	0.0165574 	-1.16893e-18
0.53125 	-0.953125 	0.5 	39.2111 	0.0111112 	-8.35696e-19
0.546875 	-0.953125 	0.5 	39.2082 	0.00606603 	1.12005e-18
0.5625 	-0.953125 	0.5 	39.2056 	-0.0013511 	2.01246e-19
0.578125 	-0.953125 	0.5 	39.2034 	-0.00631064 	5.22399e-20
0.59375 	-0.953125 	0.5 	39.2017 	-0.0124457 	-3.90827e-19
0.609375 	-0.953125 	0.5 	39.1988 	-0.0188401 	-1.74418e-19
0.625 	-0.953125 	0.5 	39.1969 	-0.024257 	1.09415e-18
0.640625 	-0.953125 	0.5 	39.1938 	-0.0353685 	-2.3155e-20
0.65625 	-0.953125 	0.5 	39.1927 	-0.0397232 	1.19085e-19
0.671875 	-0.953125 	0.5 	39.1907 	-0.0467927 	1.76751e-19
0.6875 	-0.953125 	0.5 	39.1891 	-0.0543737 	-2.9419e-19
0.703125 	-0.953125 	0.5 	39.187 	-0.0613847 	4.0841e-19
0.71875 	-0.953125 	0.5 	39.1854 	-0.0683676 	3.80734e-19
0.734375 	-0.953125 	0.5 	39.1843 	-0.0768021 	4.87043e-19
0.75 	-0.953125 	0.5 	39.183 	-0.0848859 	5.88684e-19
0.765625 	-0.953125 	0.5 	39.1812 	-0.0946379 	-4.21035e-19
0.78125 	-0.953125 	0.5 	39.1812 	-0.101569 	-2.15203e-19
0.796875 	-0.953125 	0.5 	39.1802 	-0.109701 	-1.08221e-19
0.8125 	-0.953125 	0.5 	39.1814 	-0.118847 	-2.64099e-19
0.828125 	-0.953125 	0.5 	39.1816 	-0.126902 	-1.7712e-19
0.84375 	-0.953125 	0.5 	39.1823 	-0.135874 	-5.17297e-19
0.859375 	-0.953125 	0.5 	39.1819 	-0.143916 	-1.08125e-18
0.875 	-0.953125 	0.5 	39.1839 	-0.1556 	-6.52714e-19
0.890625 	-0.953125 	0.5 	39.185 	-0.164325 	-9.47111e-19
0.90625 	-0.953125 	0.5 	39.1862 	-0.172627 	-5.82736e-19
0.921875 	-0.953125 	0.5 	39.1876 	-0.180676 	3.44156e-19
0.9375 	-0.953125 	0.5 	39.1896 	-0.189858 	4.13371e-19
0.953125 	-0.953125 	0.5 	39.1915 	-0.199082 	6.08931e-19
0.96875 	-0.953125 	0.5 	39.1933 	-0.208527 	9.63117e-19
0.984375 	-0.953125 	0.5 	39.1965 	-0.217736 	6.90756e-19
1 	-0.953125 	0.5 	39.2001 	-0.227012 	2.65129e-19
1.01562 	-0.953125 	0.5 	39.2034 	-0.236528 	3.67241e-19
1.03125 	-0.953125 	0.5 	39.2063 	-0.244544 	-7.15179e-19
1.04688 	-0.953125 	0.5 	39.2099 	-0.253713 	-5.70868e-19
1.0625 	-0.953125 	0.5 	39.2138 	-0.263302 	-8.48733e-19
1.07812 	-0.953125 	0.5 	39.2181 	-0.270813 	6.27348e-19
1.09375 	-0.953125 	0.5 	39.2224 	-0.281183 	1.4479e-18
1.10938 	-0.953125 	0.5 	39.2279 	-0.288645 	6.23682e-19
1.125 	-0.953125 	0.5 	39.2326 	-0.297242 	-8.7313e-19
1.14062 	-0.953125 	0.5 	39.2381 	-0.305576 	7.42384e-20
1.15625 	-0.953125 	0.5 	39.2428 	-0.313197 	-6.22246e-19
1.17188 	-0.953125 	0.5 	39.2481 	-0.320918 	-6.52143e-19
1.1875 	-0.953125 	0.5 	39.2541 	-0.328066 	6.66445e-19
1.20312 	-0.953125 	0.5 	39.2602 	-0.336083 	-1.89574e-19
1.21875 	-0.953125 	0.5 	39.2666 	-0.343503 	-3.00703e-19
1.23438 	-0.953125 	0.5 	39.2734 	-0.351102 	-2.47206e-19
1.25 	-0.953125 	0.5 	39.2803 	-0.357659 	-2.3919e-19
1.26562 	-0.953125 	0.5 	39.2872 	-0.363774 	-4.02581e-19
1.28125 	-0.953125 	0.5 	39.2941 	-0.370418 	-6.66245e-19
1.29688 	-0.953125 	0.5 	39.3006 	-0.375644 	2.51967e-19
1.3125 	-0.953125 	0.5 	39.3074 	-0.381606 	8.39008e-20
1.32812 	-0.953125 	0.5 	39.315 	-0.389214 	6.42571e-19
1.34375 	-0.953125 	0.5 	39.3222 	-0.395596 	2.92151e-19
1.35938 	-0.953125 	0.5 	39.3297 	-0.400682 	3.48133e-19
1.375 	-0.953125 	0.5 	39.3375 	-0.40552 	6.79291e-19
1.39062 	-0.953125 	0.5 	39.3449 	-0.410664 	5.31701e-19
1.40625 	-0.953125 	0.5 	39.3519 	-0.416427 	-4.98558e-19
1.42188 	-0.953125 	0.5 	39.3599 	-0.421721 	-6.24625e-19
1.4375 	-0.953125 	0.5 	39.3676 	-0.426973 	-1.44857e-19
1.45312 	-0.953125 	0.5 	39.377 	-0.42954 	-2.30589e-19
1.46875 	-0.953125 	0.5 	39.384 	-0.434305 	-4.47863e-20
1.48438 	-0.953125 	0.5 	39.3928 	-0.436256 	-5.02256e-19
-0.5 	-0.9375 	0.5 	39.3301 	0.348992 	-4.46014e-19
-0.484375 	-0.9375 	0.5 	39.325 	0.343465 	5.3587e-19
-0.46875 	-0.9375 	0.5 	39.3201 	0.337173 	2.5755e-19
-0.453125 	-0.9375 	0.5 	39.3149 	0.330704 	-1.08924e-18
-0.4375 	-0.9375 	0.5 	39.3103 	0.325713 	-4.86472e-19
-0.421875 	-0.9375 	0.5 	39.3056 	0.320721 	1.16295e-19
-0.40625 	-0.9375 	0.5 	39.3012 	0.315222 	-1.28782e-19
-0.390625 	-0.9375 	0.5 	39.2975 	0.309237 	1.11832e-18
-0.375 	-0.9375 	0.5 	39.2936 	0.303145 	2.63467e-18
-0.359375 	-0.9375 	0.5 	39.2898 	0.297052 	4.15103e-18
-0.34375 	-0.9375 	0.5 	39.2861 	0.291073 	1.13268e-18
-0.328125 	-0.9375 	0.5 	39.2824 	0.284282 	7.65906e-19
-0.3125 	-0.9375 	0.5 	39.2786 	0.278115 	-4.75604e-19
-0.296875 	-0.9375 	0.5 	39.2753 	0.271786 	-3.70132e-19
-0.28125 	-0.9375 	0.5 	39.2726 	0.264521 	-8.17639e-19
-0.265625 	-0.9375 	0.5 	39.2697 	0.258101 	-6.31039e-19
-0.25 	-0.9375 	0.5 	39.2668 	0.251965 	-2.43834e-19
-0.234375 	-0.9375 	0.5 	39.2641 	0.24563 	4.42814e-19
-0.21875 	-0.9375 	0.5 	39.2624 	0.239154 	-2.02633e-19
-0.203125 	-0.9375 	0.5 	39.2604 	0.232529 	-8.91732e-19
-0.1875 	-0.9375 	0.5 	39.2582 	0.226098 	-3.04011e-19
-0.171875 	-0.9375 	0.5 	39.258 	0.219305 	-7.6319e-20
-0.15625 	-0.9375 	0.5 	39.2548 	0.214494 	-3.22579e-19
-0.140625 	-0.9375 	0.5 	39.254 	0.207288 	-2.3352e-19
-0.125 	-0.9375 	0.5 	39.2506 	0.203551 	9.84065e-21
-0.109375 	-0.9375 	0.5 	39.2492 	0.194737 	3.88282e-19
-0.09375 	-0.9375 	0.5 	39.2484 	0.188963 	-4.2179e-20
-0.078125 	-0.9375 	0.5 	39.2477 	0.182909 	-3.61836e-19
-0.0625 	-0.9375 	0.5 	39.247 	0.176777 	-8.01145e-19
-0.046875 	-0.9375 	0.5 	39.2471 	0.171591 	-3.68157e-19
-0.03125 	-0.9375 	0.5 	39.2472 	0.16634 	-1.00141e-19
-0.015625 	-0.9375 	0.5 	39.2473 	0.161144 	1.79991e-19