-0.5 	-1 	0.5 	-8.24096
-0.484375 	-1 	0.5 	-8.40381
-0.46875 	-1 	0.5 	-8.57413
-0.453125 	-1 	0.5 	-8.79257
-0.4375 	-1 	0.5 	-9.02972
-0.421875 	-1 	0.5 	-9.23777
-0.40625 	-1 	0.5 	-9.45787
-0.390625 	-1 	0.5 	-9.67618
-0.375 	-1 	0.5 	-9.90205
-0.359375 	-1 	0.5 	-10.179
-0.34375 	-1 	0.5 	-10.4469
-0.328125 	-1 	0.5 	-10.6526
-0.3125 	-1 	0.5 	-10.9036
-0.296875 	-1 	0.5 	-11.1036
-0.28125 	-1 	0.5 	-11.4316
-0.265625 	-1 	0.5 	-11.6853
-0.25 	-1 	0.5 	-12.0381
-0.234375 	-1 	0.5 	-12.3865
-0.21875 	-1 	0.5 	-12.7091
-0.203125 	-1 	0.5 	-13.02
-0.1875 	-1 	0.5 	-13.372
-0.171875 	-1 	0.5 	-13.7029
-0.15625 	-1 	0.5 	-14.0245
-0.140625 	-1 	0.5 	-14.3698
-0.125 	-1 	0.5 	-14.7168
-0.109375 	-1 	0.5 	-15.0579
-0.09375 	-1 	0.5 	-15.3858
-0.078125 	-1 	0.5 	-15.7254
-0.0625 	-1 	0.5 	-16.1342
-0.046875 	-1 	0.5 	-16.596
-0.03125 	-1 	0.5 	-17.011
-0.015625 	-1 	0.5 	-17.3239
0 	-1 	0.5 	-17.6743
0.015625 	-1 	0.5 	-18.0437
0.03125 	-1 	0.5 	-18.4581
0.046875 	-1 	0.5 	-18.9223
0.0625 	-1 	0.5 	-19.199
0.078125 	-1 	0.5 	-19.6188
0.09375 	-1 	0.5 	-19.9399
0.109375 	-1 	0.5 	-20.2808
0.125 	-1 	0.5 	-20.5666
0.140625 	-1 	0.5 	-20.864
0.15625 	-1 	0.5 	-21.2103
0.171875 	-1 	0.5 	-21.5614
0.1875 	-1 	0.5 	-21.8005
0.203125 	-1 	0.5 	-22.1319
0.21875 	-1 	0.5 	-22.4467
0.234375 	-1 	0.5 	-22.6349
0.25 	-1 	0.5 	-23.0186
0.265625 	-1 	0.5 	-23.2225
0.28125 	-1 	0.5 	-23.531
0.296875 	-1 	0.5 	-23.6458
0.3125 	-1 	0.5 	-23.8276
0.328125 	-1 	0.5 	-24.0337
0.34375 	-1 	0.5 	-24.2062
0.359375 	-1 	0.5 	-24.3185
0.375 	-1 	0.5 	-24.448
0.390625 	-1 	0.5 	-24.7309
0.40625 	-1 	0.5 	-24.752
0.421875 	-1 	0.5 	-24.7763
0.4375 	-1 	0.5 	-24.7932
0.453125 	-1 	0.5 	-24.8651
0.46875 	-1 	0.5 	-24.9851
0.484375 	-1 	0.5 	-25.0174
0.5 	-1 	0.5 	-24.9885
0.515625 	-1 	0.5 	-24.9311
0.53125 	-1 	0.5 	-24.8741
0.546875 	-1 	0.5 	-24.7777
0.5625 	-1 	0.5 	-24.7694
0.578125 	-1 	0.5 	-24.6982
0.59375 	-1 	0.5 	-24.5495
0.609375 	-1 	0.5 	-24.4075
0.625 	-1 	0.5 	-24.2676
0.640625 	-1 	0.5 	-24.0333
0.65625 	-1 	0.5 	-23.957
0.671875 	-1 	0.5 	-23.7704
0.6875 	-1 	0.5 	-23.5547
0.703125 	-1 	0.5 	-23.3078
0.71875 	-1 	0.5 	-23.0925
0.734375 	-1 	0.5 	-22.9419
0.75 	-1 	0.5 	-22.6888
0.765625 	-1 	0.5 	-22.4187
0.78125 	-1 	0.5 	-22.1423
0.796875 	-1 	0.5 	-21.7825
0.8125 	-1 	0.5 	-21.5287
0.828125 	-1 	0.5 	-21.2778
0.84375 	-1 	0.5 	-21.1512
0.859375 	-1 	0.5 	-20.8121
0.875 	-1 	0.5 	-20.3565
0.890625 	-1 	0.5 	-20.0472
0.90625 	-1 	0.5 	-19.734
0.921875 	-1 	0.5 	-19.4771
0.9375 	-1 	0.5 	-19.127
0.953125 	-1 	0.5 	-18.8517
0.96875 	-1 	0.5 	-18.6338
0.984375 	-1 	0.5 	-18.3597
1 	-1 	0.5 	-18.0323
1.01562 	-1 	0.5 	-17.607
1.03125 	-1 	0.5 	-17.319
1.04688 	-1 	0.5 	-17.0052
1.0625 	-1 	0.5 	-16.6975
1.07812 	-1 	0.5 	-16.3978
1.09375 	-1 	0.5 	-16.1294
1.10938 	-1 	0.5 	-15.9542
1.125 	-1 	0.5 	-15.5152
1.14062 	-1 	0.5 	-15.2541
1.15625 	-1 	0.5 	-14.8906
1.17188 	-1 	0.5 	-14.7214
1.1875 	-1 	0.5 	-14.4945
1.20312 	-1 	0.5 	-14.2862
1.21875 	-1 	0.5 	-14.0147
1.23438 	-1 	0.5 	-13.6618
1.25 	-1 	0.5 	-13.4548
1.26562 	-1 	0.5 	-13.1497
1.28125 	-1 	0.5 	-12.9731
1.29688 	-1 	0.5 	-12.8057
1.3125 	-1 	0.5 	-12.609
1.32812 	-1 	0.5 	-12.4212
1.34375 	-1 	0.5 	-12.2264
1.35938 	-1 	0.5 	-12.0162
1.375 	-1 	0.5 	-11.8258
1.39062 	-1 	0.5 	-11.6786
1.40625 	-1 	0.5 	-11.5182
1.42188 	-1 	0.5 	-11.3242
1.4375 	-1 	0.5 	-11.1581
1.45312 	-1 	0.5 	-11.0096
1.46875 	-1 	0.5 	-10.8632
1.48438 	-1 	0.5 	-10.7184
-0.5 	-0.984375 	0.5 	-8.05819
-0.484375 	-0.984375 	0.5 	-8.22278
-0.46875 	-0.984375 	0.5 	-8.41698
-0.453125 	-0.984375 	0.5 	-8.64596
-0.4375 	-0.984375 	0.5 	-8.87588
-0.421875 	-0.984375 	0.5 	-9.10331
-0.40625 	-0.984375 	0.5 	-9.33083
-0.390625 	-0.984375 	0.5 	-9.55507
-0.375 	-0.984375 	0.5 	-9.71903
-0.359375 	-0.984375 	0.5 	-9.94404
-0.34375 	-0.984375 	0.5 	-10.2278
-0.328125 	-0.984375 	0.5 	-10.5114
-0.3125 	-0.984375 	0.5 	-10.7522
-0.296875 	-0.984375 	0.5 	-11.0149
-0.28125 	-0.984375 	0.5 	-11.2714
-0.265625 	-0.984375 	0.5 	-11.5682
-0.25 	-0.984375 	0.5 	-11.9196
-0.234375 	-0.984375 	0.5 	-12.2822
-0.21875 	-0.984375 	0.5 	-12.6402
-0.203125 	-0.984375 	0.5 	-12.9922
-0.1875 	-0.984375 	0.5 	-13.3368
-0.171875 	-0.984375 	0.5 	-13.6656
-0.15625 	-0.984375 	0.5 	-13.9864
-0.140625 	-0.984375 	0.5 	-14.3389
-0.125 	-0.984375 	0.5 	-14.6849
-0.109375 	-0.984375 	0.5 	-15.1067
-0.09375 	-0.984375 	0.5 	-15.4817
-0.078125 	-0.984375 	0.5 	-15.8242
-0.0625 	-0.984375 	0.5 	-16.1981
-0.046875 	-0.984375 	0.5 	-16.6432
-0.03125 	-0.984375 	0.5 	-17.0308
-0.015625 	-0.984375 	0.5 	-17.4241
0 	-0.984375 	0.5 	-17.7878
0.015625 	-0.984375 	0.5 	-18.1886
0.03125 	-0.984375 	0.5 	-18.5912
0.046875 	-0.984375 	0.5 	-19.0317
0.0625 	-0.984375 	0.5 	-19.3971
0.078125 	-0.984375 	0.5 	-19.7182
0.09375 	-0.984375 	0.5 	-20.056
0.109375 	-0.984375 	0.5 	-20.4469
0.125 	-0.984375 	0.5 	-20.8797
0.140625 	-0.984375 	0.5 	-21.16
0.15625 	-0.984375 	0.5 	-21.5209
0.171875 	-0.984375 	0.5 	-21.8492
0.1875 	-0.984375 	0.5 	-22.1526
0.203125 	-0.984375 	0.5 	-22.4064
0.21875 	-0.984375 	0.5 	-22.7352
0.234375 	-0.984375 	0.5 	-23.1165
0.25 	-0.984375 	0.5 	-23.4117
0.265625 	-0.984375 	0.5 	-23.6318
0.28125 	-0.984375 	0.5 	-23.796
0.296875 	-0.984375 	0.5 	-23.9707
0.3125 	-0.984375 	0.5 	-24.3022
0.328125 	-0.984375 	0.5 	-24.6022
0.34375 	-0.984375 	0.5 	-24.6436
0.359375 	-0.984375 	0.5 	-24.7517
0.375 	-0.984375 	0.5 	-24.8922
0.390625 	-0.984375 	0.5 	-25.0488
0.40625 	-0.984375 	0.5 	-25.2307
0.421875 	-0.984375 	0.5 	-25.2697
0.4375 	-0.984375 	0.5 	-25.2526
0.453125 	-0.984375 	0.5 	-25.3398
0.46875 	-0.984375 	0.5 	-25.398
0.484375 	-0.984375 	0.5 	-25.4736
0.5 	-0.984375 	0.5 	-25.3819
0.515625 	-0.984375 	0.5 	-25.3337
0.53125 	-0.984375 	0.5 	-25.3006
0.546875 	-0.984375 	0.5 	-25.264
0.5625 	-0.984375 	0.5 	-25.2134
0.578125 	-0.984375 	0.5 	-25.0375
0.59375 	-0.984375 	0.5 	-24.9351
0.609375 	-0.984375 	0.5 	-24.7915
0.625 	-0.984375 	0.5 	-24.6387
0.640625 	-0.984375 	0.5 	-24.4924
0.65625 	-0.984375 	0.5 	-24.4045
0.671875 	-0.984375 	0.5 	-24.1447
0.6875 	-0.984375 	0.5 	-23.8907
0.703125 	-0.984375 	0.5 	-23.6954
0.71875 	-0.984375 	0.5 	-23.4136
0.734375 	-0.984375 	0.5 	-23.217
0.75 	-0.984375 	0.5 	-22.9643
0.765625 	-0.984375 	0.5 	-22.6829
0.78125 	-0.984375 	0.5 	-22.417
0.796875 	-0.984375 	0.5 	-22.0277
0.8125 	-0.984375 	0.5 	-21.7371
0.828125 	-0.984375 	0.5 	-21.5073
0.84375 	-0.984375 	0.5 	-21.3464
0.859375 	-0.984375 	0.5 	-21.1022
0.875 	-0.984375 	0.5 	-20.5477
0.890625 	-0.984375 	0.5 	-20.2248
0.90625 	-0.984375 	0.5 	-19.9324
0.921875 	-0.984375 	0.5 	-19.6567
0.9375 	-0.984375 	0.5 	-19.3093
0.953125 	-0.984375 	0.5 	-18.9814
0.96875 	-0.984375 	0.5 	-18.7664
0.984375 	-0.984375 	0.5 	-18.4586
1 	-0.984375 	0.5 	-18.1297
1.01562 	-0.984375 	0.5 	-17.7027
1.03125 	-0.984375 	0.5 	-17.4017
1.04688 	-0.984375 	0.5 	-17.0742
1.0625 	-0.984375 	0.5 	-16.7638
1.07812 	-0.984375 	0.5 	-16.4568
1.09375 	-0.984375 	0.5 	-16.2319
1.10938 	-0.984375 	0.5 	-15.9962
1.125 	-0.984375 	0.5 	-15.5647
1.14062 	-0.984375 	0.5 	-15.2085
1.15625 	-0.984375 	0.5 	-14.8955
1.17188 	-0.984375 	0.5 	-14.6799
1.1875 	-0.984375 	0.5 	-14.4758
1.20312 	-0.984375 	0.5 	-14.2738
1.21875 	-0.984375 	0.5 	-14.012
1.23438 	-0.984375 	0.5 	-13.6771
1.25 	-0.984375 	0.5 	-13.3926
1.26562 	-0.984375 	0.5 	-13.1731
1.28125 	-0.984375 	0.5 	-12.9603
1.29688 	-0.984375 	0.5 	-12.7266
1.3125 	-0.984375 	0.5 	-12.4973
1.32812 	-0.984375 	0.5 	-12.3019
1.34375 	-0.984375 	0.5 	-12.1065
1.35938 	-0.984375 	0.5 	-11.9113
1.375 	-0.984375 	0.5 	-11.7498
1.39062 	-0.984375 	0.5 	-11.5718
1.40625 	-0.984375 	0.5 	-11.4039
1.42188 	-0.984375 	0.5 	-11.2237
1.4375 	-0.984375 	0.5 	-11.0513
1.45312 	-0.984375 	0.5 	-10.9028
1.46875 	-0.984375 	0.5 	-10.7276
1.48438 	-0.984375 	0.5 	-10.584
-0.5 	-0.96875 	0.5 	-7.8458
-0.484375 	-0.96875 	0.5 	-8.02845
-0.46875 	-0.96875 	0.5 	-8.2197
-0.453125 	-0.96875 	0.5 	-8.51794
-0.4375 	-0.96875 	0.5 	-8.64612
-0.421875 	-0.96875 	0.5 	-8.92067
-0.40625 	-0.96875 	0.5 	-9.15922
-0.390625 	-0.96875 	0.5 	-9.39339
-0.375 	-0.96875 	0.5 	-9.54991
-0.359375 	-0.96875 	0.5 	-9.72963
-0.34375 	-0.96875 	0.5 	-10.0558
-0.328125 	-0.96875 	0.5 	-10.3581
-0.3125 	-0.96875 	0.5 	-10.6636
-0.296875 	-0.96875 	0.5 	-10.9161
-0.28125 	-0.96875 	0.5 	-11.2057
-0.265625 	-0.96875 	0.5 	-11.4968
-0.25 	-0.96875 	0.5 	-11.7967
-0.234375 	-0.96875 	0.5 	-12.2774
-0.21875 	-0.96875 	0.5 	-12.5639
-0.203125 	-0.96875 	0.5 	-12.9407
-0.1875 	-0.96875 	0.5 	-13.2817
-0.171875 	-0.96875 	0.5 	-13.6237
-0.15625 	-0.96875 	0.5 	-13.9604
-0.140625 	-0.96875 	0.5 	-14.3054
-0.125 	-0.96875 	0.5 	-14.6722
-0.109375 	-0.96875 	0.5 	-15.0864
-0.09375 	-0.96875 	0.5 	-15.5306
-0.078125 	-0.96875 	0.5 	-15.9231
-0.0625 	-0.96875 	0.5 	-16.2873
-0.046875 	-0.96875 	0.5 	-16.6716
-0.03125 	-0.96875 	0.5 	-17.1548
-0.015625 	-0.96875 	0.5 	-17.4814
0 	-0.96875 	0.5 	-17.9202
0.015625 	-0.96875 	0.5 	-18.2763
0.03125 	-0.96875 	0.5 	-18.7064
0.046875 	-0.96875 	0.5 	-19.1482
0.0625 	-0.96875 	0.5 	-19.5415
0.078125 	-0.96875 	0.5 	-19.9002
0.09375 	-0.96875 	0.5 	-20.2589
0.109375 	-0.96875 	0.5 	-20.6384
0.125 	-0.96875 	0.5 	-21.0138
0.140625 	-0.96875 	0.5 	-21.4572
0.15625 	-0.96875 	0.5 	-21.8065
0.171875 	-0.96875 	0.5 	-22.1258
0.1875 	-0.96875 	0.5 	-22.4451
0.203125 	-0.96875 	0.5 	-22.7427
0.21875 	-0.96875 	0.5 	-23.0359
0.234375 	-0.96875 	0.5 	-23.4637
0.25 	-0.96875 	0.5 	-23.7635
0.265625 	-0.96875 	0.5 	-24.0609
0.28125 	-0.96875 	0.5 	-24.1795
0.296875 	-0.96875 	0.5 	-24.5088
0.3125 	-0.96875 	0.5 	-24.7409
0.328125 	-0.96875 	0.5 	-24.9454
0.34375 	-0.96875 	0.5 	-25.1329
0.359375 	-0.96875 	0.5 	-25.1557
0.375 	-0.96875 	0.5 	-25.3288
0.390625 	-0.96875 	0.5 	-25.5613
0.40625 	-0.96875 	0.5 	-25.6895
0.421875 	-0.96875 	0.5 	-25.8159
0.4375 	-0.96875 	0.5 	-25.799
0.453125 	-0.96875 	0.5 	-25.8198
0.46875 	-0.96875 	0.5 	-25.8338
0.484375 	-0.96875 	0.5 	-25.8831
0.5 	-0.96875 	0.5 	-25.8511
0.515625 	-0.96875 	0.5 	-25.8819
0.53125 	-0.96875 	0.5 	-25.7416
0.546875 	-0.96875 	0.5 	-25.7278
0.5625 	-0.96875 	0.5 	-25.6685
0.578125 	-0.96875 	0.5 	-25.5519
0.59375 	-0.96875 	0.5 	-25.2381
0.609375 	-0.96875 	0.5 	-25.1751
0.625 	-0.96875 	0.5 	-25.0446
0.640625 	-0.96875 	0.5 	-24.9093
0.65625 	-0.96875 	0.5 	-24.7964
0.671875 	-0.96875 	0.5 	-24.5836
0.6875 	-0.96875 	0.5 	-24.3282
0.703125 	-0.96875 	0.5 	-24.0602
0.71875 	-0.96875 	0.5 	-23.8701
0.734375 	-0.96875 	0.5 	-23.5322
0.75 	-0.96875 	0.5 	-23.3118
0.765625 	-0.96875 	0.5 	-23.0283
0.78125 	-0.96875 	0.5 	-22.6985
0.796875 	-0.96875 	0.5 	-22.3753
0.8125 	-0.96875 	0.5 	-22.0344
0.828125 	-0.96875 	0.5 	-21.7848
0.84375 	-0.96875 	0.5 	-21.5537
0.859375 	-0.96875 	0.5 	-21.241
0.875 	-0.96875 	0.5 	-20.8836
0.890625 	-0.96875 	0.5 	-20.4975
0.90625 	-0.96875 	0.5 	-20.1185
0.921875 	-0.96875 	0.5 	-19.79
0.9375 	-0.96875 	0.5 	-19.4672
0.953125 	-0.96875 	0.5 	-19.132
0.96875 	-0.96875 	0.5 	-18.858
0.984375 	-0.96875 	0.5 	-18.5192
1 	-0.96875 	0.5 	-18.18
1.01562 	-0.96875 	0.5 	-17.8074
1.03125 	-0.96875 	0.5 	-17.4789
1.04688 	-0.96875 	0.5 	-17.1348
1.0625 	-0.96875 	0.5 	-16.7924
1.07812 	-0.96875 	0.5 	-16.4556
1.09375 	-0.96875 	0.5 	-16.159
1.10938 	-0.96875 	0.5 	-15.8619
1.125 	-0.96875 	0.5 	-15.5653
1.14062 	-0.96875 	0.5 	-15.2627
1.15625 	-0.96875 	0.5 	-14.983
1.17188 	-0.96875 	0.5 	-14.7033
1.1875 	-0.96875 	0.5 	-14.4286
1.20312 	-0.96875 	0.5 	-14.1619
1.21875 	-0.96875 	0.5 	-13.893
1.23438 	-0.96875 	0.5 	-13.6194
1.25 	-0.96875 	0.5 	-13.3503
1.26562 	-0.96875 	0.5 	-13.1283
1.28125 	-0.96875 	0.5 	-12.8883
1.29688 	-0.96875 	0.5 	-12.6314
1.3125 	-0.96875 	0.5 	-12.3662
1.32812 	-0.96875 	0.5 	-12.1454
1.34375 	-0.96875 	0.5 	-11.9604
1.35938 	-0.96875 	0.5 	-11.7851
1.375 	-0.96875 	0.5 	-11.6216
1.39062 	-0.96875 	0.5 	-11.4923
1.40625 	-0.96875 	0.5 	-11.3074
1.42188 	-0.96875 	0.5 	-11.1157
1.4375 	-0.96875 	0.5 	-10.9354
1.45312 	-0.96875 	0.5 	-10.7633
1.46875 	-0.96875 	0.5 	-10.5973
1.48438 	-0.96875 	0.5 	-10.4539
-0.5 	-0.953125 	0.5 	-7.65777
-0.484375 	-0.953125 	0.5 	-7.85132
-0.46875 	-0.953125 	0.5 	-8.0222
-0.453125 	-0.953125 	0.5 	-8.25537
-0.4375 	-0.953125 	0.5 	-8.45968
-0.421875 	-0.953125 	0.5 	-8.74424
-0.40625 	-0.953125 	0.5 	-8.97321
-0.390625 	-0.953125 	0.5 	-9.21513
-0.375 	-0.953125 	0.5 	-9.38079
-0.359375 	-0.953125 	0.5 	-9.68306
-0.34375 	-0.953125 	0.5 	-9.9515
-0.328125 	-0.953125 	0.5 	-10.2179
-0.3125 	-0.953125 	0.5 	-10.5593
-0.296875 	-0.953125 	0.5 	-10.8458
-0.28125 	-0.953125 	0.5 	-11.103
-0.265625 	-0.953125 	0.5 	-11.3978
-0.25 	-0.953125 	0.5 	-11.6764
-0.234375 	-0.953125 	0.5 	-12.156
-0.21875 	-0.953125 	0.5 	-12.4618
-0.203125 	-0.953125 	0.5 	-12.839
-0.1875 	-0.953125 	0.5 	-13.178
-0.171875 	-0.953125 	0.5 	-13.5562
-0.15625 	-0.953125 	0.5 	-13.9346
-0.140625 	-0.953125 	0.5 	-14.2775
-0.125 	-0.953125 	0.5 	-14.6775
-0.109375 	-0.953125 	0.5 	-15.0659
-0.09375 	-0.953125 	0.5 	-15.5848
-0.078125 	-0.953125 	0.5 	-15.9815
-0.0625 	-0.953125 	0.5 	-16.4017
-0.046875 	-0.953125 	0.5 	-16.7364
-0.03125 	-0.953125 	0.5 	-17.1714
-0.015625 	-0.953125 	0.5 	-17.5952
0 	-0.953125 	0.5 	-18.0717
0.015625 	-0.953125 	0.5 	-18.4503
0.03125 	-0.953125 	0.5 	-18.9555
0.046875 	-0.953125 	0.5 	-19.3154
0.0625 	-0.953125 	0.5 	-19.77
0.078125 	-0.953125 	0.5 	-20.0151
0.09375 	-0.953125 	0.5 	-20.48
0.109375 	-0.953125 	0.5 	-20.9791
0.125 	-0.953125 	0.5 	-21.4814
0.140625 	-0.953125 	0.5 	-21.771
0.15625 	-0.953125 	0.5 	-22.1197
0.171875 	-0.953125 	0.5 	-22.4102
0.1875 	-0.953125 	0.5 	-22.7475
0.203125 	-0.953125 	0.5 	-23.1139
0.21875 	-0.953125 	0.5 	-23.4586
0.234375 	-0.953125 	0.5 	-23.7939
0.25 	-0.953125 	0.5 	-24.1163
0.265625 	-0.953125 	0.5 	-24.4089
0.28125 	-0.953125 	0.5 	-24.6214
0.296875 	-0.953125 	0.5 	-24.8845
0.3125 	-0.953125 	0.5 	-25.165
0.328125 	-0.953125 	0.5 	-25.4436
0.34375 	-0.953125 	0.5 	-25.6064
0.359375 	-0.953125 	0.5 	-25.6064
0.375 	-0.953125 	0.5 	-25.6304
0.390625 	-0.953125 	0.5 	-26.0495
0.40625 	-0.953125 	0.5 	-26.1634
0.421875 	-0.953125 	0.5 	-26.269
0.4375 	-0.953125 	0.5 	-26.2603
0.453125 	-0.953125 	0.5 	-26.306
0.46875 	-0.953125 	0.5 	-26.3473
0.484375 	-0.953125 	0.5 	-26.3345
0.5 	-0.953125 	0.5 	-26.3015
0.515625 	-0.953125 	0.5 	-26.3442
0.53125 	-0.953125 	0.5 	-26.2065
0.546875 	-0.953125 	0.5 	-26.1298
0.5625 	-0.953125 	0.5 	-26.1233
0.578125 	-0.953125 	0.5 	-26.1012
0.59375 	-0.953125 	0.5 	-25.848
0.609375 	-0.953125 	0.5 	-25.6
0.625 	-0.953125 	0.5 	-25.4279
0.640625 	-0.953125 	0.5 	-25.3457
0.65625 	-0.953125 	0.5 	-25.2277
0.671875 	-0.953125 	0.5 	-25.0002
0.6875 	-0.953125 	0.5 	-24.7643
0.703125 	-0.953125 	0.5 	-24.5235
0.71875 	-0.953125 	0.5 	-24.1981
0.734375 	-0.953125 	0.5 	-23.8504
0.75 	-0.953125 	0.5 	-23.626
0.765625 	-0.953125 	0.5 	-23.3193
0.78125 	-0.953125 	0.5 	-23.0271
0.796875 	-0.953125 	0.5 	-22.6567
0.8125 	-0.953125 	0.5 	-22.3223
0.828125 	-0.953125 	0.5 	-22.0882
0.84375 	-0.953125 	0.5 	-21.7868
0.859375 	-0.953125 	0.5 	-21.4855
0.875 	-0.953125 	0.5 	-21.0897
0.890625 	-0.953125 	0.5 	-20.688
0.90625 	-0.953125 	0.5 	-20.3452
0.921875 	-0.953125 	0.5 	-20.0798
0.9375 	-0.953125 	0.5 	-19.7172
0.953125 	-0.953125 	0.5 	-19.2433
0.96875 	-0.953125 	0.5 	-18.921
0.984375 	-0.953125 	0.5 	-18.5991
1 	-0.953125 	0.5 	-18.2578
1.01562 	-0.953125 	0.5 	-17.9013
1.03125 	-0.953125 	0.5 	-17.5049
1.04688 	-0.953125 	0.5 	-17.1301
1.0625 	-0.953125 	0.5 	-16.8685
1.07812 	-0.953125 	0.5 	-16.4542
1.09375 	-0.953125 	0.5 	-16.1614
1.10938 	-0.953125 	0.5 	-15.8637
1.125 	-0.953125 	0.5 	-15.5773
1.14062 	-0.953125 	0.5 	-15.2265
1.15625 	-0.953125 	0.5 	-14.9358
1.17188 	-0.953125 	0.5 	-14.6808
1.1875 	-0.953125 	0.5 	-14.3893
1.20312 	-0.953125 	0.5 	-14.0959
1.21875 	-0.953125 	0.5 	-13.8225
1.23438 	-0.953125 	0.5 	-13.5029
1.25 	-0.953125 	0.5 	-13.2653
1.26562 	-0.953125 	0.5 	-13.0172
1.28125 	-0.953125 	0.5 	-12.7799
1.29688 	-0.953125 	0.5 	-12.5423
1.3125 	-0.953125 	0.5 	-12.2771
1.32812 	-0.953125 	0.5 	-12.022
1.34375 	-0.953125 	0.5 	-11.8402
1.35938 	-0.953125 	0.5 	-11.6522
1.375 	-0.953125 	0.5 	-11.4934
1.39062 	-0.953125 	0.5 	-11.3533
1.40625 	-0.953125 	0.5 	-11.1729
1.42188 	-0.953125 	0.5 	-10.9721
1.4375 	-0.953125 	0.5 	-10.7831
1.45312 	-0.953125 	0.5 	-10.635
1.46875 	-0.953125 	0.5 	-10.4793
1.48438 	-0.953125 	0.5 	-10.3238
-0.5 	-0.9375 	0.5 	-7.47512
-0.484375 	-0.9375 	0.5 	-7.651
-0.46875 	-0.9375 	0.5 	-7.82506
-0.453125 	-0.9375 	0.5 	-7.99813
-0.4375 	-0.9375 	0.5 	-8.24729
-0.421875 	-0.9375 	0.5 	-8.50147
-0.40625 	-0.9375 	0.5 	-8.75566
-0.390625 	-0.9375 	0.5 	-9.00999
-0.375 	-0.9375 	0.5 	-9.27595
-0.359375 	-0.9375 	0.5 	-9.54382
-0.34375 	-0.9375 	0.5 	-9.81169
-0.328125 	-0.9375 	0.5 	-10.0765
-0.3125 	-0.9375 	0.5 	-10.4464
-0.296875 	-0.9375 	0.5 	-10.746
-0.28125 	-0.9375 	0.5 	-11.024
-0.265625 	-0.9375 	0.5 	-11.3461
-0.25 	-0.9375 	0.5 	-11.6681
-0.234375 	-0.9375 	0.5 	-11.9901
-0.21875 	-0.9375 	0.5 	-12.3692
-0.203125 	-0.9375 	0.5 	-12.7612
-0.1875 	-0.9375 	0.5 	-13.1415
-0.171875 	-0.9375 	0.5 	-13.5055
-0.15625 	-0.9375 	0.5 	-13.9954
-0.140625 	-0.9375 	0.5 	-14.3012
-0.125 	-0.9375 	0.5 	-14.7096
-0.109375 	-0.9375 	0.5 	-15.0865
-0.09375 	-0.9375 	0.5 	-15.8405
-0.078125 	-0.9375 	0.5 	-16.0374
-0.0625 	-0.9375 	0.5 	-16.5092
-0.046875 	-0.9375 	0.5 	-16.8273
-0.03125 	-0.9375 	0.5 	-17.2928
-0.015625 	-0.9375 	0.5 	-17.7554
0 	-0.9375 	0.5 	-18.2145
0.015625 	-0.9375 	0.5 	-18.695
0.03125 	-0.9375 	0.5 	-19.2315
0.046875 	-0.9375 	0.5 	-19.5404
0.0625 	-0.9375 	0.5 	-20.0403
0.078125 	-0.9375 	0.5 	-20.3191
0.09375 	-0.9375 	0.5 	-20.7252
0.109375 	-0.9375 	0.5 	-21.1632
0.125 	-0.9375 	0.5 	-21.7968
0.140625 	-0.9375 	0.5 	-22.081
0.15625 	-0.9375 	0.5 	-22.4854
0.171875 	-0.9375 	0.5 	-22.7559
0.1875 	-0.9375 	0.5 	-23.1023
0.203125 	-0.9375 	0.5 	-23.4767
0.21875 	-0.9375 	0.5 	-23.85
0.234375 	-0.9375 	0.5 	-24.19
0.25 	-0.9375 	0.5 	-24.563
0.265625 	-0.9375 	0.5 	-24.8759
0.28125 	-0.9375 	0.5 	-25.1068
0.296875 	-0.9375 	0.5 	-25.2985
0.3125 	-0.9375 	0.5 	-25.5836
0.328125 	-0.9375 	0.5 	-25.9839
0.34375 	-0.9375 	0.5 	-26.2192
0.359375 	-0.9375 	0.5 	-25.9657
0.375 	-0.9375 	0.5 	-26.3483
0.390625 	-0.9375 	0.5 	-26.4971
0.40625 	-0.9375 	0.5 	-26.5975
0.421875 	-0.9375 	0.5 	-26.7106
0.4375 	-0.9375 	0.5 	-26.7431
0.453125 	-0.9375 	0.5 	-26.8334
0.46875 	-0.9375 	0.5 	-26.8763
0.484375 	-0.9375 	0.5 	-26.7611
0.5 	-0.9375 	0.5 	-26.7326
0.515625 	-0.9375 	0.5 	-26.8093
0.53125 	-0.9375 	0.5 	-26.7329
0.546875 	-0.9375 	0.5 	-26.5758
0.5625 	-0.9375 	0.5 	-26.5912
0.578125 	-0.9375 	0.5 	-26.5974
0.59375 	-0.9375 	0.5 	-26.3548
0.609375 	-0.9375 	0.5 	-26.081
0.625 	-0.9375 	0.5 	-25.8825
0.640625 	-0.9375 	0.5 	-25.7919
0.65625 	-0.9375 	0.5 	-25.6053
0.671875 	-0.9375 	0.5 	-25.3664
0.6875 	-0.9375 	0.5 	-25.1692
0.703125 	-0.9375 	0.5 	-24.9029
0.71875 	-0.9375 	0.5 	-24.4845
0.734375 	-0.9375 	0.5 	-24.1868
0.75 	-0.9375 	0.5 	-23.9116
0.765625 	-0.9375 	0.5 	-23.6926
0.78125 	-0.9375 	0.5 	-23.3305
0.796875 	-0.9375 	0.5 	-22.9672
0.8125 	-0.9375 	0.5 	-22.6483
0.828125 	-0.9375 	0.5 	-22.3123
0.84375 	-0.9375 	0.5 	-21.9922
0.859375 	-0.9375 	0.5 	-21.6747
0.875 	-0.9375 	0.5 	-21.3417
0.890625 	-0.9375 	0.5 	-20.9511
0.90625 	-0.9375 	0.5 	-20.6069
0.921875 	-0.9375 	0.5 	-20.2747
0.9375 	-0.9375 	0.5 	-19.7151
0.953125 	-0.9375 	0.5 	-19.4094
0.96875 	-0.9375 	0.5 	-18.9884
0.984375 	-0.9375 	0.5 	-18.692
1 	-0.9375 	0.5 	-18.3481
1.01562 	-0.9375 	0.5 	-18.0229
1.03125 	-0.9375 	0.5 	-17.5935
1.04688 	-0.9375 	0.5 	-17.2057
1.0625 	-0.9375 	0.5 	-16.8534
1.07812 	-0.9375 	0.5 	-16.4643
1.09375 	-0.9375 	0.5 	-16.1635
1.10938 	-0.9375 	0.5 	-15.8693
1.125 	-0.9375 	0.5 	-15.5653
1.14062 	-0.9375 	0.5 	-15.2258
1.15625 	-0.9375 	0.5 	-14.9102
1.17188 	-0.9375 	0.5 	-14.6423
1.1875 	-0.9375 	0.5 	-14.347
1.20312 	-0.9375 	0.5 	-14.0174
1.21875 	-0.9375 	0.5 	-13.7154
1.23438 	-0.9375 	0.5 	-13.4109
1.25 	-0.9375 	0.5 	-13.175
1.26562 	-0.9375 	0.5 	-12.928
1.28125 	-0.9375 	0.5 	-12.6792
1.29688 	-0.9375 	0.5 	-12.4065
1.3125 	-0.9375 	0.5 	-12.159
1.32812 	-0.9375 	0.5 	-11.8986
1.34375 	-0.9375 	0.5 	-11.7133
1.35938 	-0.9375 	0.5 	-11.5489
1.375 	-0.9375 	0.5 	-11.3845
1.39062 	-0.9375 	0.5 	-11.2221
1.40625 	-0.9375 	0.5 	-11.0212
1.42188 	-0.9375 	0.5 	-10.8212
1.4375 	-0.9375 	0.5 	-10.6341
1.45312 	-0.9375 	0.5 	-10.4655
1.46875 	-0.9375 	0.5 	-10.3302
1.48438 	-0.9375 	0.5 	-10.1857
-0.5 	-0.921875 	0.5 	-7.26396
-0.484375 	-0.921875 	0.5 	-7.38001
-0.46875 	-0.921875 	0.5 	-7.55215
-0.453125 	-0.921875 	0.5 	-7.72612
-0.4375 	-0.921875 	0.5 	-8.0243
-0.421875 	-0.921875 	0.5 	-8.26555
-0.40625 	-0.921875 	0.5 	-8.53196
-0.390625 	-0.921875 	0.5 	-8.83963
-0.375 	-0.921875 	0.5 	-9.10317
-0.359375 	-0.921875 	0.5 	-9.39568
-0.34375 	-0.921875 	0.5 	-9.66847
-0.328125 	-0.921875 	0.5 	-9.93504
-0.3125 	-0.921875 	0.5 	-10.265
-0.296875 	-0.921875 	0.5 	-10.5027
-0.28125 	-0.921875 	0.5 	-10.874
-0.265625 	-0.921875 	0.5 	-11.1611
-0.25 	-0.921875 	0.5 	-11.4968
-0.234375 	-0.921875 	0.5 	-11.877
-0.21875 	-0.921875 	0.5 	-12.266
-0.203125 	-0.921875 	0.5 	-12.6581
-0.1875 	-0.921875 	0.5 	-13.0506
-0.171875 	-0.921875 	0.5 	-13.4712
-0.15625 	-0.921875 	0.5 	-13.8916
-0.140625 	-0.921875 	0.5 	-14.3287
-0.125 	-0.921875 	0.5 	-14.8012
-0.109375 	-0.921875 	0.5 	-15.1622
-0.09375 	-0.921875 	0.5 	-15.6414
-0.078125 	-0.921875 	0.5 	-16.0932
-0.0625 	-0.921875 	0.5 	-16.417
-0.046875 	-0.921875 	0.5 	-16.7536
-0.03125 	-0.921875 	0.5 	-17.3486
-0.015625 	-0.921875 	0.5 	-17.8957
0 	-0.921875 	0.5 	-18.3105
0.015625 	-0.921875 	0.5 	-18.7731
0.03125 	-0.921875 	0.5 	-19.2504
0.046875 	-0.921875 	0.5 	-19.6941
0.0625 	-0.921875 	0.5 	-20.1098
0.078125 	-0.921875 	0.5 	-20.5939
0.09375 	-0.921875 	0.5 	-20.9891
0.109375 	-0.921875 	0.5 	-21.4852
0.125 	-0.921875 	0.5 	-21.9463
0.140625 	-0.921875 	0.5 	-22.3435
0.15625 	-0.921875 	0.5 	-22.7131
0.171875 	-0.921875 	0.5 	-23.1041
0.1875 	-0.921875 	0.5 	-23.4814
0.203125 	-0.921875 	0.5 	-23.8503
0.21875 	-0.921875 	0.5 	-24.2182
0.234375 	-0.921875 	0.5 	-24.6331
0.25 	-0.921875 	0.5 	-24.9282
0.265625 	-0.921875 	0.5 	-25.33
0.28125 	-0.921875 	0.5 	-25.5931
0.296875 	-0.921875 	0.5 	-25.6813
0.3125 	-0.921875 	0.5 	-26.0372
0.328125 	-0.921875 	0.5 	-26.3054
0.34375 	-0.921875 	0.5 	-26.6005
0.359375 	-0.921875 	0.5 	-26.7815
0.375 	-0.921875 	0.5 	-27.1024
0.390625 	-0.921875 	0.5 	-27.0225
0.40625 	-0.921875 	0.5 	-27.0901
0.421875 	-0.921875 	0.5 	-27.1834
0.4375 	-0.921875 	0.5 	-27.2813
0.453125 	-0.921875 	0.5 	-27.3407
0.46875 	-0.921875 	0.5 	-27.3748
0.484375 	-0.921875 	0.5 	-27.3555
0.5 	-0.921875 	0.5 	-27.323
0.515625 	-0.921875 	0.5 	-27.2533
0.53125 	-0.921875 	0.5 	-27.1732
0.546875 	-0.921875 	0.5 	-27.047
0.5625 	-0.921875 	0.5 	-27.0779
0.578125 	-0.921875 	0.5 	-27.1583
0.59375 	-0.921875 	0.5 	-26.9321
0.609375 	-0.921875 	0.5 	-26.6813
0.625 	-0.921875 	0.5 	-26.4695
0.640625 	-0.921875 	0.5 	-26.1968
0.65625 	-0.921875 	0.5 	-25.9422
0.671875 	-0.921875 	0.5 	-25.7108
0.6875 	-0.921875 	0.5 	-25.4914
0.703125 	-0.921875 	0.5 	-25.2268
0.71875 	-0.921875 	0.5 	-24.8635
0.734375 	-0.921875 	0.5 	-24.5602
0.75 	-0.921875 	0.5 	-24.2784
0.765625 	-0.921875 	0.5 	-23.9837
0.78125 	-0.921875 	0.5 	-23.674
0.796875 	-0.921875 	0.5 	-23.3328
0.8125 	-0.921875 	0.5 	-23.0034
0.828125 	-0.921875 	0.5 	-22.5582
0.84375 	-0.921875 	0.5 	-22.2296
0.859375 	-0.921875 	0.5 	-21.8956
0.875 	-0.921875 	0.5 	-21.552
0.890625 	-0.921875 	0.5 	-21.1029
0.90625 	-0.921875 	0.5 	-20.7102
0.921875 	-0.921875 	0.5 	-20.4127
0.9375 	-0.921875 	0.5 	-19.9053
0.953125 	-0.921875 	0.5 	-19.5184
0.96875 	-0.921875 	0.5 	-19.0902
0.984375 	-0.921875 	0.5 	-18.7668
1 	-0.921875 	0.5 	-18.4511
1.01562 	-0.921875 	0.5 	-18.0736
1.03125 	-0.921875 	0.5 	-17.6812
1.04688 	-0.921875 	0.5 	-17.2826
1.0625 	-0.921875 	0.5 	-16.9142
1.07812 	-0.921875 	0.5 	-16.5538
1.09375 	-0.921875 	0.5 	-16.183
1.10938 	-0.921875 	0.5 	-15.8403
1.125 	-0.921875 	0.5 	-15.5111
1.14062 	-0.921875 	0.5 	-15.1821
1.15625 	-0.921875 	0.5 	-14.8378
1.17188 	-0.921875 	0.5 	-14.5933
1.1875 	-0.921875 	0.5 	-14.2955
1.20312 	-0.921875 	0.5 	-13.9415
1.21875 	-0.921875 	0.5 	-13.6208
1.23438 	-0.921875 	0.5 	-13.3509
1.25 	-0.921875 	0.5 	-13.0844
1.26562 	-0.921875 	0.5 	-12.8559
1.28125 	-0.921875 	0.5 	-12.5834
1.29688 	-0.921875 	0.5 	-12.28
1.3125 	-0.921875 	0.5 	-12.041
1.32812 	-0.921875 	0.5 	-11.769
1.34375 	-0.921875 	0.5 	-11.5961
1.35938 	-0.921875 	0.5 	-11.5017
1.375 	-0.921875 	0.5 	-11.3446
1.39062 	-0.921875 	0.5 	-11.0867
1.40625 	-0.921875 	0.5 	-10.8733
1.42188 	-0.921875 	0.5 	-10.6799
1.4375 	-0.921875 	0.5 	-10.4851
1.45312 	-0.921875 	0.5 	-10.336
1.46875 	-0.921875 	0.5 	-10.1785
1.48438 	-0.921875 	0.5 	-10.0266
-0.5 	-0.90625 	0.5 	-7.07302
-0.484375 	-0.90625 	0.5 	-7.1587
-0.46875 	-0.90625 	0.5 	-7.39274
-0.453125 	-0.90625 	0.5 	-7.44323
-0.4375 	-0.90625 	0.5 	-7.79068
-0.421875 	-0.90625 	0.5 	-8.05888
-0.40625 	-0.90625 	0.5 	-8.35881
-0.390625 	-0.90625 	0.5 	-8.67987
-0.375 	-0.90625 	0.5 	-8.8895
-0.359375 	-0.90625 	0.5 	-9.22196
-0.34375 	-0.90625 	0.5 	-9.49774
-0.328125 	-0.90625 	0.5 	-9.77164
-0.3125 	-0.90625 	0.5 	-10.065
-0.296875 	-0.90625 	0.5 	-10.2979
-0.28125 	-0.90625 	0.5 	-10.6453
-0.265625 	-0.90625 	0.5 	-11.0076
-0.25 	-0.90625 	0.5 	-11.3684
-0.234375 	-0.90625 	0.5 	-11.7695
-0.21875 	-0.90625 	0.5 	-12.1579
-0.203125 	-0.90625 	0.5 	-12.5467
-0.1875 	-0.90625 	0.5 	-12.9418
-0.171875 	-0.90625 	0.5 	-13.3628
-0.15625 	-0.90625 	0.5 	-13.7786
-0.140625 	-0.90625 	0.5 	-14.2253
-0.125 	-0.90625 	0.5 	-14.6428
-0.109375 	-0.90625 	0.5 	-15.1299
-0.09375 	-0.90625 	0.5 	-15.6171
-0.078125 	-0.90625 	0.5 	-16.0917
-0.0625 	-0.90625 	0.5 	-16.5243
-0.046875 	-0.90625 	0.5 	-16.9448
-0.03125 	-0.90625 	0.5 	-17.3889
-0.015625 	-0.90625 	0.5 	-17.9481
0 	-0.90625 	0.5 	-18.4101
0.015625 	-0.90625 	0.5 	-18.8651
0.03125 	-0.90625 	0.5 	-19.3534
0.046875 	-0.90625 	0.5 	-19.8924
0.0625 	-0.90625 	0.5 	-20.3787
0.078125 	-0.90625 	0.5 	-20.8344
0.09375 	-0.90625 	0.5 	-21.1989
0.109375 	-0.90625 	0.5 	-21.716
0.125 	-0.90625 	0.5 	-22.2355
0.140625 	-0.90625 	0.5 	-22.6514
0.15625 	-0.90625 	0.5 	-23.0371
0.171875 	-0.90625 	0.5 	-23.4728
0.1875 	-0.90625 	0.5 	-23.8559
0.203125 	-0.90625 	0.5 	-24.27
0.21875 	-0.90625 	0.5 	-24.6702
0.234375 	-0.90625 	0.5 	-24.9816
0.25 	-0.90625 	0.5 	-25.3176
0.265625 	-0.90625 	0.5 	-25.6218
0.28125 	-0.90625 	0.5 	-26.0661
0.296875 	-0.90625 	0.5 	-26.1727
0.3125 	-0.90625 	0.5 	-26.5406
0.328125 	-0.90625 	0.5 	-26.7329
0.34375 	-0.90625 	0.5 	-26.8832
0.359375 	-0.90625 	0.5 	-27.2825
0.375 	-0.90625 	0.5 	-27.5663
0.390625 	-0.90625 	0.5 	-27.784
0.40625 	-0.90625 	0.5 	-27.718
0.421875 	-0.90625 	0.5 	-27.7309
0.4375 	-0.90625 	0.5 	-27.9132
0.453125 	-0.90625 	0.5 	-27.9459
0.46875 	-0.90625 	0.5 	-27.9478
0.484375 	-0.90625 	0.5 	-27.9223
0.5 	-0.90625 	0.5 	-27.9244
0.515625 	-0.90625 	0.5 	-27.8462
0.53125 	-0.90625 	0.5 	-27.7528
0.546875 	-0.90625 	0.5 	-27.6162
0.5625 	-0.90625 	0.5 	-27.5453
0.578125 	-0.90625 	0.5 	-27.4467
0.59375 	-0.90625 	0.5 	-27.4298
0.609375 	-0.90625 	0.5 	-27.2203
0.625 	-0.90625 	0.5 	-26.947
0.640625 	-0.90625 	0.5 	-26.7432
0.65625 	-0.90625 	0.5 	-26.4175
0.671875 	-0.90625 	0.5 	-26.1478
0.6875 	-0.90625 	0.5 	-25.8552
0.703125 	-0.90625 	0.5 	-25.5873
0.71875 	-0.90625 	0.5 	-25.3358
0.734375 	-0.90625 	0.5 	-24.9463
0.75 	-0.90625 	0.5 	-24.6592
0.765625 	-0.90625 	0.5 	-24.4094
0.78125 	-0.90625 	0.5 	-24.1052
0.796875 	-0.90625 	0.5 	-23.6859
0.8125 	-0.90625 	0.5 	-23.2226
0.828125 	-0.90625 	0.5 	-22.7991
0.84375 	-0.90625 	0.5 	-22.4757
0.859375 	-0.90625 	0.5 	-22.1186
0.875 	-0.90625 	0.5 	-21.7302
0.890625 	-0.90625 	0.5 	-21.3312
0.90625 	-0.90625 	0.5 	-20.9743
0.921875 	-0.90625 	0.5 	-20.5439
0.9375 	-0.90625 	0.5 	-20.0909
0.953125 	-0.90625 	0.5 	-19.6545
0.96875 	-0.90625 	0.5 	-19.2998
0.984375 	-0.90625 	0.5 	-18.9324
1 	-0.90625 	0.5 	-18.4917
1.01562 	-0.90625 	0.5 	-18.1477
1.03125 	-0.90625 	0.5 	-17.7367
1.04688 	-0.90625 	0.5 	-17.3148
1.0625 	-0.90625 	0.5 	-16.8989
1.07812 	-0.90625 	0.5 	-16.5314
1.09375 	-0.90625 	0.5 	-16.1878
1.10938 	-0.90625 	0.5 	-15.8101
1.125 	-0.90625 	0.5 	-15.4789
1.14062 	-0.90625 	0.5 	-15.1523
1.15625 	-0.90625 	0.5 	-14.7875
1.17188 	-0.90625 	0.5 	-14.4943
1.1875 	-0.90625 	0.5 	-14.1713
1.20312 	-0.90625 	0.5 	-13.843
1.21875 	-0.90625 	0.5 	-13.5394
1.23438 	-0.90625 	0.5 	-13.223
1.25 	-0.90625 	0.5 	-13.0022
1.26562 	-0.90625 	0.5 	-12.7374
1.28125 	-0.90625 	0.5 	-12.4815
1.29688 	-0.90625 	0.5 	-12.2089
1.3125 	-0.90625 	0.5 	-11.9067
1.32812 	-0.90625 	0.5 	-11.634
1.34375 	-0.90625 	0.5 	-11.4472
1.35938 	-0.90625 	0.5 	-11.2821
1.375 	-0.90625 	0.5 	-11.1663
1.39062 	-0.90625 	0.5 	-10.9458
1.40625 	-0.90625 	0.5 	-10.7322
1.42188 	-0.90625 	0.5 	-10.5391
1.4375 	-0.90625 	0.5 	-10.3278
1.45312 	-0.90625 	0.5 	-10.1764
1.46875 	-0.90625 	0.5 	-10.0188
1.48438 	-0.90625 	0.5 	-9.86761
-0.5 	-0.890625 	0.5 	-6.88089
-0.484375 	-0.890625 	0.5 	-6.97512
-0.46875 	-0.890625 	0.5 	-7.13845
-0.453125 	-0.890625 	0.5 	-7.29444
-0.4375 	-0.890625 	0.5 	-7.58598
-0.421875 	-0.890625 	0.5 	-7.85353
-0.40625 	-0.890625 	0.5 	-8.15046
-0.390625 	-0.890625 	0.5 	-8.44668
-0.375 	-0.890625 	0.5 	-8.67583
-0.359375 	-0.890625 	0.5 	-8.98374
-0.34375 	-0.890625 	0.5 	-9.23781
-0.328125 	-0.890625 	0.5 	-9.53532
-0.3125 	-0.890625 	0.5 	-9.7928
-0.296875 	-0.890625 	0.5 	-10.1445
-0.28125 	-0.890625 	0.5 	-10.5287
-0.265625 	-0.890625 	0.5 	-10.8614
-0.25 	-0.890625 	0.5 	-11.2573
-0.234375 	-0.890625 	0.5 	-11.6532
-0.21875 	-0.890625 	0.5 	-12.0447
-0.203125 	-0.890625 	0.5 	-12.4415
-0.1875 	-0.890625 	0.5 	-12.839
-0.171875 	-0.890625 	0.5 	-13.266
-0.15625 	-0.890625 	0.5 	-13.6988
-0.140625 	-0.890625 	0.5 	-14.1598
-0.125 	-0.890625 	0.5 	-14.6706
-0.109375 	-0.890625 	0.5 	-15.1557
-0.09375 	-0.890625 	0.5 	-15.7494