-0.5 	-1 	0.5 	38.7615
-0.484375 	-1 	0.5 	38.4414
-0.46875 	-1 	0.5 	38.1088
-0.453125 	-1 	0.5 	37.7734
-0.4375 	-1 	0.5 	37.4558
-0.421875 	-1 	0.5 	37.0719
-0.40625 	-1 	0.5 	36.6935
-0.390625 	-1 	0.5 	36.3273
-0.375 	-1 	0.5 	35.8905
-0.359375 	-1 	0.5 	35.454
-0.34375 	-1 	0.5 	35.018
-0.328125 	-1 	0.5 	34.5808
-0.3125 	-1 	0.5 	34.1948
-0.296875 	-1 	0.5 	33.7572
-0.28125 	-1 	0.5 	33.0973
-0.265625 	-1 	0.5 	32.5161
-0.25 	-1 	0.5 	31.9963
-0.234375 	-1 	0.5 	31.5437
-0.21875 	-1 	0.5 	30.9973
-0.203125 	-1 	0.5 	30.4014
-0.1875 	-1 	0.5 	29.7845
-0.171875 	-1 	0.5 	29.1618
-0.15625 	-1 	0.5 	28.5967
-0.140625 	-1 	0.5 	28.0185
-0.125 	-1 	0.5 	27.3622
-0.109375 	-1 	0.5 	26.7336
-0.09375 	-1 	0.5 	26.1884
-0.078125 	-1 	0.5 	25.541
-0.0625 	-1 	0.5 	24.976
-0.046875 	-1 	0.5 	24.3673
-0.03125 	-1 	0.5 	23.7922
-0.015625 	-1 	0.5 	23.1764
0 	-1 	0.5 	22.547
0.015625 	-1 	0.5 	21.952
0.03125 	-1 	0.5 	21.3781
0.046875 	-1 	0.5 	20.7836
0.0625 	-1 	0.5 	20.1786
0.078125 	-1 	0.5 	19.6364
0.09375 	-1 	0.5 	19.0813
0.109375 	-1 	0.5 	18.5866
0.125 	-1 	0.5 	18.0875
0.140625 	-1 	0.5 	17.5431
0.15625 	-1 	0.5 	17.0068
0.171875 	-1 	0.5 	16.5664
0.1875 	-1 	0.5 	16.0257
0.203125 	-1 	0.5 	15.7358
0.21875 	-1 	0.5 	15.3929
0.234375 	-1 	0.5 	15.0432
0.25 	-1 	0.5 	14.6712
0.265625 	-1 	0.5 	14.3276
0.28125 	-1 	0.5 	14.0376
0.296875 	-1 	0.5 	13.7844
0.3125 	-1 	0.5 	13.5638
0.328125 	-1 	0.5 	13.3331
0.34375 	-1 	0.5 	13.1793
0.359375 	-1 	0.5 	13.0159
0.375 	-1 	0.5 	12.9865
0.390625 	-1 	0.5 	12.845
0.40625 	-1 	0.5 	12.7708
0.421875 	-1 	0.5 	12.633
0.4375 	-1 	0.5 	12.7067
0.453125 	-1 	0.5 	12.7631
0.46875 	-1 	0.5 	12.7587
0.484375 	-1 	0.5 	12.8107
0.5 	-1 	0.5 	13.1433
0.515625 	-1 	0.5 	13.3041
0.53125 	-1 	0.5 	13.3171
0.546875 	-1 	0.5 	13.3556
0.5625 	-1 	0.5 	13.4678
0.578125 	-1 	0.5 	13.677
0.59375 	-1 	0.5 	13.9491
0.609375 	-1 	0.5 	14.2686
0.625 	-1 	0.5 	14.4676
0.640625 	-1 	0.5 	14.7975
0.65625 	-1 	0.5 	15.1623
0.671875 	-1 	0.5 	15.4001
0.6875 	-1 	0.5 	15.5703
0.703125 	-1 	0.5 	16.0193
0.71875 	-1 	0.5 	16.4533
0.734375 	-1 	0.5 	16.7952
0.75 	-1 	0.5 	17.0871
0.765625 	-1 	0.5 	17.6038
0.78125 	-1 	0.5 	17.975
0.796875 	-1 	0.5 	18.3157
0.8125 	-1 	0.5 	18.7747
0.828125 	-1 	0.5 	19.1275
0.84375 	-1 	0.5 	19.5116
0.859375 	-1 	0.5 	19.9985
0.875 	-1 	0.5 	20.5065
0.890625 	-1 	0.5 	20.8796
0.90625 	-1 	0.5 	21.2398
0.921875 	-1 	0.5 	21.5999
0.9375 	-1 	0.5 	22.0539
0.953125 	-1 	0.5 	22.4996
0.96875 	-1 	0.5 	22.9552
0.984375 	-1 	0.5 	23.3909
1 	-1 	0.5 	23.7759
1.01562 	-1 	0.5 	24.1474
1.03125 	-1 	0.5 	24.5753
1.04688 	-1 	0.5 	25.06
1.0625 	-1 	0.5 	25.4142
1.07812 	-1 	0.5 	25.8281
1.09375 	-1 	0.5 	26.2301
1.10938 	-1 	0.5 	26.4871
1.125 	-1 	0.5 	26.7245
1.14062 	-1 	0.5 	27.1226
1.15625 	-1 	0.5 	27.511
1.17188 	-1 	0.5 	27.8802
1.1875 	-1 	0.5 	28.1871
1.20312 	-1 	0.5 	28.5014
1.21875 	-1 	0.5 	28.7682
1.23438 	-1 	0.5 	29.035
1.25 	-1 	0.5 	29.2765
1.26562 	-1 	0.5 	29.5265
1.28125 	-1 	0.5 	29.7767
1.29688 	-1 	0.5 	30.0291
1.3125 	-1 	0.5 	30.2918
1.32812 	-1 	0.5 	30.555
1.34375 	-1 	0.5 	30.8098
1.35938 	-1 	0.5 	31.0224
1.375 	-1 	0.5 	31.2192
1.39062 	-1 	0.5 	31.4103
1.40625 	-1 	0.5 	31.6622
1.42188 	-1 	0.5 	31.8526
1.4375 	-1 	0.5 	32.0433
1.45312 	-1 	0.5 	32.2318
1.46875 	-1 	0.5 	32.3174
1.48438 	-1 	0.5 	32.4272
-0.5 	-0.984375 	0.5 	39.0991
-0.484375 	-0.984375 	0.5 	38.8007
-0.46875 	-0.984375 	0.5 	38.4211
-0.453125 	-0.984375 	0.5 	38.088
-0.4375 	-0.984375 	0.5 	37.7611
-0.421875 	-0.984375 	0.5 	37.3704
-0.40625 	-0.984375 	0.5 	36.9856
-0.390625 	-0.984375 	0.5 	36.5936
-0.375 	-0.984375 	0.5 	36.1907
-0.359375 	-0.984375 	0.5 	35.7753
-0.34375 	-0.984375 	0.5 	35.3079
-0.328125 	-0.984375 	0.5 	34.8127
-0.3125 	-0.984375 	0.5 	34.2497
-0.296875 	-0.984375 	0.5 	33.836
-0.28125 	-0.984375 	0.5 	33.2746
-0.265625 	-0.984375 	0.5 	32.6995
-0.25 	-0.984375 	0.5 	32.175
-0.234375 	-0.984375 	0.5 	31.6373
-0.21875 	-0.984375 	0.5 	31.0676
-0.203125 	-0.984375 	0.5 	30.5168
-0.1875 	-0.984375 	0.5 	29.9018
-0.171875 	-0.984375 	0.5 	29.2771
-0.15625 	-0.984375 	0.5 	28.6865
-0.140625 	-0.984375 	0.5 	27.9359
-0.125 	-0.984375 	0.5 	27.3366
-0.109375 	-0.984375 	0.5 	26.7414
-0.09375 	-0.984375 	0.5 	26.1938
-0.078125 	-0.984375 	0.5 	25.4624
-0.0625 	-0.984375 	0.5 	24.886
-0.046875 	-0.984375 	0.5 	24.2591
-0.03125 	-0.984375 	0.5 	23.6053
-0.015625 	-0.984375 	0.5 	22.9696
0 	-0.984375 	0.5 	22.3379
0.015625 	-0.984375 	0.5 	21.7116
0.03125 	-0.984375 	0.5 	21.0811
0.046875 	-0.984375 	0.5 	20.4261
0.0625 	-0.984375 	0.5 	19.7923
0.078125 	-0.984375 	0.5 	19.2349
0.09375 	-0.984375 	0.5 	18.683
0.109375 	-0.984375 	0.5 	18.1639
0.125 	-0.984375 	0.5 	17.6326
0.140625 	-0.984375 	0.5 	17.1754
0.15625 	-0.984375 	0.5 	16.518
0.171875 	-0.984375 	0.5 	16.0217
0.1875 	-0.984375 	0.5 	15.6174
0.203125 	-0.984375 	0.5 	15.2494
0.21875 	-0.984375 	0.5 	14.8395
0.234375 	-0.984375 	0.5 	14.4157
0.25 	-0.984375 	0.5 	14.0481
0.265625 	-0.984375 	0.5 	13.723
0.28125 	-0.984375 	0.5 	13.3982
0.296875 	-0.984375 	0.5 	13.1229
0.3125 	-0.984375 	0.5 	12.8861
0.328125 	-0.984375 	0.5 	12.6669
0.34375 	-0.984375 	0.5 	12.5179
0.359375 	-0.984375 	0.5 	12.3728
0.375 	-0.984375 	0.5 	12.2804
0.390625 	-0.984375 	0.5 	12.1892
0.40625 	-0.984375 	0.5 	12.1016
0.421875 	-0.984375 	0.5 	12.053
0.4375 	-0.984375 	0.5 	11.9867
0.453125 	-0.984375 	0.5 	12.0969
0.46875 	-0.984375 	0.5 	12.1227
0.484375 	-0.984375 	0.5 	12.2921
0.5 	-0.984375 	0.5 	12.5395
0.515625 	-0.984375 	0.5 	12.573
0.53125 	-0.984375 	0.5 	12.6033
0.546875 	-0.984375 	0.5 	12.7732
0.5625 	-0.984375 	0.5 	12.8779
0.578125 	-0.984375 	0.5 	13.0785
0.59375 	-0.984375 	0.5 	13.3214
0.609375 	-0.984375 	0.5 	13.6471
0.625 	-0.984375 	0.5 	13.9322
0.640625 	-0.984375 	0.5 	14.2738
0.65625 	-0.984375 	0.5 	14.6145
0.671875 	-0.984375 	0.5 	14.9925
0.6875 	-0.984375 	0.5 	15.3557
0.703125 	-0.984375 	0.5 	15.7089
0.71875 	-0.984375 	0.5 	16.0448
0.734375 	-0.984375 	0.5 	16.4545
0.75 	-0.984375 	0.5 	16.8137
0.765625 	-0.984375 	0.5 	17.1559
0.78125 	-0.984375 	0.5 	17.6307
0.796875 	-0.984375 	0.5 	17.9346
0.8125 	-0.984375 	0.5 	18.3655
0.828125 	-0.984375 	0.5 	18.8671
0.84375 	-0.984375 	0.5 	19.3214
0.859375 	-0.984375 	0.5 	19.8411
0.875 	-0.984375 	0.5 	20.2917
0.890625 	-0.984375 	0.5 	20.7845
0.90625 	-0.984375 	0.5 	21.1435
0.921875 	-0.984375 	0.5 	21.5333
0.9375 	-0.984375 	0.5 	21.9228
0.953125 	-0.984375 	0.5 	22.4219
0.96875 	-0.984375 	0.5 	22.8718
0.984375 	-0.984375 	0.5 	23.2791
1 	-0.984375 	0.5 	23.7149
1.01562 	-0.984375 	0.5 	24.1585
1.03125 	-0.984375 	0.5 	24.5958
1.04688 	-0.984375 	0.5 	25.07
1.0625 	-0.984375 	0.5 	25.4876
1.07812 	-0.984375 	0.5 	25.7078
1.09375 	-0.984375 	0.5 	26.17
1.10938 	-0.984375 	0.5 	26.3865
1.125 	-0.984375 	0.5 	26.7492
1.14062 	-0.984375 	0.5 	27.1463
1.15625 	-0.984375 	0.5 	27.5601
1.17188 	-0.984375 	0.5 	27.9595
1.1875 	-0.984375 	0.5 	28.2677
1.20312 	-0.984375 	0.5 	28.5345
1.21875 	-0.984375 	0.5 	28.8013
1.23438 	-0.984375 	0.5 	29.068
1.25 	-0.984375 	0.5 	29.3347
1.26562 	-0.984375 	0.5 	29.6504
1.28125 	-0.984375 	0.5 	29.9181
1.29688 	-0.984375 	0.5 	30.1807
1.3125 	-0.984375 	0.5 	30.4434
1.32812 	-0.984375 	0.5 	30.7067
1.34375 	-0.984375 	0.5 	30.9665
1.35938 	-0.984375 	0.5 	31.188
1.375 	-0.984375 	0.5 	31.3856
1.39062 	-0.984375 	0.5 	31.5822
1.40625 	-0.984375 	0.5 	31.7962
1.42188 	-0.984375 	0.5 	32.0077
1.4375 	-0.984375 	0.5 	32.1968
1.45312 	-0.984375 	0.5 	32.386
1.46875 	-0.984375 	0.5 	32.5055
1.48438 	-0.984375 	0.5 	32.6294
-0.5 	-0.96875 	0.5 	39.4647
-0.484375 	-0.96875 	0.5 	39.1663
-0.46875 	-0.96875 	0.5 	38.7672
-0.453125 	-0.96875 	0.5 	38.4208
-0.4375 	-0.96875 	0.5 	38.0684
-0.421875 	-0.96875 	0.5 	37.6641
-0.40625 	-0.96875 	0.5 	37.2647
-0.390625 	-0.96875 	0.5 	36.9069
-0.375 	-0.96875 	0.5 	36.4375
-0.359375 	-0.96875 	0.5 	36.0551
-0.34375 	-0.96875 	0.5 	35.4982
-0.328125 	-0.96875 	0.5 	35.0371
-0.3125 	-0.96875 	0.5 	34.3904
-0.296875 	-0.96875 	0.5 	34.0985
-0.28125 	-0.96875 	0.5 	33.5178
-0.265625 	-0.96875 	0.5 	32.9742
-0.25 	-0.96875 	0.5 	32.3613
-0.234375 	-0.96875 	0.5 	31.7905
-0.21875 	-0.96875 	0.5 	31.2131
-0.203125 	-0.96875 	0.5 	30.6335
-0.1875 	-0.96875 	0.5 	30.008
-0.171875 	-0.96875 	0.5 	29.3854
-0.15625 	-0.96875 	0.5 	28.781
-0.140625 	-0.96875 	0.5 	28.0523
-0.125 	-0.96875 	0.5 	27.2969
-0.109375 	-0.96875 	0.5 	26.6423
-0.09375 	-0.96875 	0.5 	26.011
-0.078125 	-0.96875 	0.5 	25.3907
-0.0625 	-0.96875 	0.5 	24.7237
-0.046875 	-0.96875 	0.5 	24.111
-0.03125 	-0.96875 	0.5 	23.4025
-0.015625 	-0.96875 	0.5 	22.7106
0 	-0.96875 	0.5 	22.0685
0.015625 	-0.96875 	0.5 	21.4368
0.03125 	-0.96875 	0.5 	20.7979
0.046875 	-0.96875 	0.5 	20.0504
0.0625 	-0.96875 	0.5 	19.419
0.078125 	-0.96875 	0.5 	18.8651
0.09375 	-0.96875 	0.5 	18.256
0.109375 	-0.96875 	0.5 	17.6981
0.125 	-0.96875 	0.5 	17.1665
0.140625 	-0.96875 	0.5 	16.5869
0.15625 	-0.96875 	0.5 	16.0055
0.171875 	-0.96875 	0.5 	15.4906
0.1875 	-0.96875 	0.5 	15.0697
0.203125 	-0.96875 	0.5 	14.6632
0.21875 	-0.96875 	0.5 	14.2422
0.234375 	-0.96875 	0.5 	13.8294
0.25 	-0.96875 	0.5 	13.3985
0.265625 	-0.96875 	0.5 	13.05
0.28125 	-0.96875 	0.5 	12.7062
0.296875 	-0.96875 	0.5 	12.4244
0.3125 	-0.96875 	0.5 	12.1837
0.328125 	-0.96875 	0.5 	11.9899
0.34375 	-0.96875 	0.5 	11.8152
0.359375 	-0.96875 	0.5 	11.7082
0.375 	-0.96875 	0.5 	11.5489
0.390625 	-0.96875 	0.5 	11.4553
0.40625 	-0.96875 	0.5 	11.3483
0.421875 	-0.96875 	0.5 	11.4131
0.4375 	-0.96875 	0.5 	11.4555
0.453125 	-0.96875 	0.5 	11.4157
0.46875 	-0.96875 	0.5 	11.3683
0.484375 	-0.96875 	0.5 	11.3601
0.5 	-0.96875 	0.5 	11.5887
0.515625 	-0.96875 	0.5 	11.8506
0.53125 	-0.96875 	0.5 	12.0098
0.546875 	-0.96875 	0.5 	12.1724
0.5625 	-0.96875 	0.5 	12.3361
0.578125 	-0.96875 	0.5 	12.5816
0.59375 	-0.96875 	0.5 	12.8253
0.609375 	-0.96875 	0.5 	13.0757
0.625 	-0.96875 	0.5 	13.4181
0.640625 	-0.96875 	0.5 	13.7803
0.65625 	-0.96875 	0.5 	14.104
0.671875 	-0.96875 	0.5 	14.4958
0.6875 	-0.96875 	0.5 	14.8952
0.703125 	-0.96875 	0.5 	15.1991
0.71875 	-0.96875 	0.5 	15.6196
0.734375 	-0.96875 	0.5 	15.9393
0.75 	-0.96875 	0.5 	16.4035
0.765625 	-0.96875 	0.5 	16.8419
0.78125 	-0.96875 	0.5 	17.2787
0.796875 	-0.96875 	0.5 	17.713
0.8125 	-0.96875 	0.5 	18.1367
0.828125 	-0.96875 	0.5 	18.5856
0.84375 	-0.96875 	0.5 	19.0895
0.859375 	-0.96875 	0.5 	19.6375
0.875 	-0.96875 	0.5 	20.077
0.890625 	-0.96875 	0.5 	20.6338
0.90625 	-0.96875 	0.5 	21.0433
0.921875 	-0.96875 	0.5 	21.4235
0.9375 	-0.96875 	0.5 	21.7643
0.953125 	-0.96875 	0.5 	22.2649
0.96875 	-0.96875 	0.5 	22.7757
0.984375 	-0.96875 	0.5 	23.1965
1 	-0.96875 	0.5 	23.6409
1.01562 	-0.96875 	0.5 	24.0816
1.03125 	-0.96875 	0.5 	24.5327
1.04688 	-0.96875 	0.5 	24.9109
1.0625 	-0.96875 	0.5 	25.2874
1.07812 	-0.96875 	0.5 	25.7019
1.09375 	-0.96875 	0.5 	26.0694
1.10938 	-0.96875 	0.5 	26.4102
1.125 	-0.96875 	0.5 	26.8159
1.14062 	-0.96875 	0.5 	27.2222
1.15625 	-0.96875 	0.5 	27.6287
1.17188 	-0.96875 	0.5 	28.067
1.1875 	-0.96875 	0.5 	28.368
1.20312 	-0.96875 	0.5 	28.6077
1.21875 	-0.96875 	0.5 	28.8474
1.23438 	-0.96875 	0.5 	29.1634
1.25 	-0.96875 	0.5 	29.5019
1.26562 	-0.96875 	0.5 	29.7854
1.28125 	-0.96875 	0.5 	30.0546
1.29688 	-0.96875 	0.5 	30.3181
1.3125 	-0.96875 	0.5 	30.5938
1.32812 	-0.96875 	0.5 	30.859
1.34375 	-0.96875 	0.5 	31.1226
1.35938 	-0.96875 	0.5 	31.333
1.375 	-0.96875 	0.5 	31.5214
1.39062 	-0.96875 	0.5 	31.6993
1.40625 	-0.96875 	0.5 	31.9274
1.42188 	-0.96875 	0.5 	32.2399
1.4375 	-0.96875 	0.5 	32.4809
1.45312 	-0.96875 	0.5 	32.5502
1.46875 	-0.96875 	0.5 	32.7511
1.48438 	-0.96875 	0.5 	32.6878
-0.5 	-0.953125 	0.5 	39.8671
-0.484375 	-0.953125 	0.5 	39.5323
-0.46875 	-0.953125 	0.5 	39.1529
-0.453125 	-0.953125 	0.5 	38.7327
-0.4375 	-0.953125 	0.5 	38.4092
-0.421875 	-0.953125 	0.5 	37.9529
-0.40625 	-0.953125 	0.5 	37.5507
-0.390625 	-0.953125 	0.5 	37.2076
-0.375 	-0.953125 	0.5 	36.774
-0.359375 	-0.953125 	0.5 	36.2819
-0.34375 	-0.953125 	0.5 	35.7451
-0.328125 	-0.953125 	0.5 	35.2585
-0.3125 	-0.953125 	0.5 	34.8072
-0.296875 	-0.953125 	0.5 	34.3919
-0.28125 	-0.953125 	0.5 	33.7469
-0.265625 	-0.953125 	0.5 	33.1521
-0.25 	-0.953125 	0.5 	32.5405
-0.234375 	-0.953125 	0.5 	31.9065
-0.21875 	-0.953125 	0.5 	31.3317
-0.203125 	-0.953125 	0.5 	30.7789
-0.1875 	-0.953125 	0.5 	30.0793
-0.171875 	-0.953125 	0.5 	29.4737
-0.15625 	-0.953125 	0.5 	28.7752
-0.140625 	-0.953125 	0.5 	27.848
-0.125 	-0.953125 	0.5 	27.2988
-0.109375 	-0.953125 	0.5 	26.5716
-0.09375 	-0.953125 	0.5 	25.9475
-0.078125 	-0.953125 	0.5 	25.2659
-0.0625 	-0.953125 	0.5 	24.539
-0.046875 	-0.953125 	0.5 	23.8022
-0.03125 	-0.953125 	0.5 	23.1039
-0.015625 	-0.953125 	0.5 	22.4159
0 	-0.953125 	0.5 	21.8461
0.015625 	-0.953125 	0.5 	21.1554
0.03125 	-0.953125 	0.5 	20.4841
0.046875 	-0.953125 	0.5 	19.6976
0.0625 	-0.953125 	0.5 	18.9247
0.078125 	-0.953125 	0.5 	18.4213
0.09375 	-0.953125 	0.5 	17.8327
0.109375 	-0.953125 	0.5 	17.2654
0.125 	-0.953125 	0.5 	16.7398
0.140625 	-0.953125 	0.5 	15.9761
0.15625 	-0.953125 	0.5 	15.4834
0.171875 	-0.953125 	0.5 	14.898
0.1875 	-0.953125 	0.5 	14.4652
0.203125 	-0.953125 	0.5 	14.0189
0.21875 	-0.953125 	0.5 	13.5716
0.234375 	-0.953125 	0.5 	13.2042
0.25 	-0.953125 	0.5 	12.7082
0.265625 	-0.953125 	0.5 	12.3498
0.28125 	-0.953125 	0.5 	12.0145
0.296875 	-0.953125 	0.5 	11.7919
0.3125 	-0.953125 	0.5 	11.5475
0.328125 	-0.953125 	0.5 	11.1949
0.34375 	-0.953125 	0.5 	11.0623
0.359375 	-0.953125 	0.5 	10.9691
0.375 	-0.953125 	0.5 	10.8644
0.390625 	-0.953125 	0.5 	10.7305
0.40625 	-0.953125 	0.5 	10.6524
0.421875 	-0.953125 	0.5 	10.5888
0.4375 	-0.953125 	0.5 	10.6168
0.453125 	-0.953125 	0.5 	10.6437
0.46875 	-0.953125 	0.5 	10.6575
0.484375 	-0.953125 	0.5 	10.766
0.5 	-0.953125 	0.5 	10.9084
0.515625 	-0.953125 	0.5 	11.2128
0.53125 	-0.953125 	0.5 	11.4246
0.546875 	-0.953125 	0.5 	11.5173
0.5625 	-0.953125 	0.5 	11.7185
0.578125 	-0.953125 	0.5 	12.032
0.59375 	-0.953125 	0.5 	12.2728
0.609375 	-0.953125 	0.5 	12.5409
0.625 	-0.953125 	0.5 	12.8648
0.640625 	-0.953125 	0.5 	13.2241
0.65625 	-0.953125 	0.5 	13.6517
0.671875 	-0.953125 	0.5 	14.0572
0.6875 	-0.953125 	0.5 	14.3691
0.703125 	-0.953125 	0.5 	14.7402
0.71875 	-0.953125 	0.5 	15.1516
0.734375 	-0.953125 	0.5 	15.5126
0.75 	-0.953125 	0.5 	15.8798
0.765625 	-0.953125 	0.5 	16.4056
0.78125 	-0.953125 	0.5 	17.0917
0.796875 	-0.953125 	0.5 	17.4747
0.8125 	-0.953125 	0.5 	17.8772
0.828125 	-0.953125 	0.5 	18.3322
0.84375 	-0.953125 	0.5 	18.7671
0.859375 	-0.953125 	0.5 	19.341
0.875 	-0.953125 	0.5 	19.8717
0.890625 	-0.953125 	0.5 	20.3669
0.90625 	-0.953125 	0.5 	20.8547
0.921875 	-0.953125 	0.5 	21.3269
0.9375 	-0.953125 	0.5 	21.7896
0.953125 	-0.953125 	0.5 	22.2524
0.96875 	-0.953125 	0.5 	22.6843
0.984375 	-0.953125 	0.5 	23.1647
1 	-0.953125 	0.5 	23.584
1.01562 	-0.953125 	0.5 	24.0609
1.03125 	-0.953125 	0.5 	24.5155
1.04688 	-0.953125 	0.5 	24.9031
1.0625 	-0.953125 	0.5 	25.2756
1.07812 	-0.953125 	0.5 	25.6514
1.09375 	-0.953125 	0.5 	26.0663
1.10938 	-0.953125 	0.5 	26.4934
1.125 	-0.953125 	0.5 	26.906
1.14062 	-0.953125 	0.5 	27.3095
1.15625 	-0.953125 	0.5 	27.6985
1.17188 	-0.953125 	0.5 	28.2578
1.1875 	-0.953125 	0.5 	28.5908
1.20312 	-0.953125 	0.5 	28.818
1.21875 	-0.953125 	0.5 	29.0457
1.23438 	-0.953125 	0.5 	29.341
1.25 	-0.953125 	0.5 	29.6342
1.26562 	-0.953125 	0.5 	29.9203
1.28125 	-0.953125 	0.5 	30.2049
1.29688 	-0.953125 	0.5 	30.4603
1.3125 	-0.953125 	0.5 	30.7319
1.32812 	-0.953125 	0.5 	31.0035
1.34375 	-0.953125 	0.5 	31.284
1.35938 	-0.953125 	0.5 	31.468
1.375 	-0.953125 	0.5 	31.6378
1.39062 	-0.953125 	0.5 	31.8109
1.40625 	-0.953125 	0.5 	32.0632
1.42188 	-0.953125 	0.5 	32.3534
1.4375 	-0.953125 	0.5 	32.6129
1.45312 	-0.953125 	0.5 	32.735
1.46875 	-0.953125 	0.5 	32.9884
1.48438 	-0.953125 	0.5 	32.9763
-0.5 	-0.9375 	0.5 	40.2015
-0.484375 	-0.9375 	0.5 	39.9372
-0.46875 	-0.9375 	0.5 	39.5331
-0.453125 	-0.9375 	0.5 	39.0977
-0.4375 	-0.9375 	0.5 	38.75
-0.421875 	-0.9375 	0.5 	38.2667
-0.40625 	-0.9375 	0.5 	37.8406
-0.390625 	-0.9375 	0.5 	37.4284
-0.375 	-0.9375 	0.5 	36.9641
-0.359375 	-0.9375 	0.5 	36.5746
-0.34375 	-0.9375 	0.5 	36.1232
-0.328125 	-0.9375 	0.5 	35.6493
-0.3125 	-0.9375 	0.5 	35.1597
-0.296875 	-0.9375 	0.5 	34.573
-0.28125 	-0.9375 	0.5 	33.9703
-0.265625 	-0.9375 	0.5 	33.3038
-0.25 	-0.9375 	0.5 	32.6678
-0.234375 	-0.9375 	0.5 	32.0193
-0.21875 	-0.9375 	0.5 	31.4768
-0.203125 	-0.9375 	0.5 	30.8949
-0.1875 	-0.9375 	0.5 	30.2038
-0.171875 	-0.9375 	0.5 	29.5857
-0.15625 	-0.9375 	0.5 	28.8829
-0.140625 	-0.9375 	0.5 	28.0219
-0.125 	-0.9375 	0.5 	27.227
-0.109375 	-0.9375 	0.5 	26.4532
-0.09375 	-0.9375 	0.5 	25.8598
-0.078125 	-0.9375 	0.5 	25.1682
-0.0625 	-0.9375 	0.5 	24.4533
-0.046875 	-0.9375 	0.5 	23.602
-0.03125 	-0.9375 	0.5 	22.8845
-0.015625 	-0.9375 	0.5 	22.2282
0 	-0.9375 	0.5 	21.6024
0.015625 	-0.9375 	0.5 	20.8664
0.03125 	-0.9375 	0.5 	19.9922
0.046875 	-0.9375 	0.5 	19.1024
0.0625 	-0.9375 	0.5 	18.5215
0.078125 	-0.9375 	0.5 	17.7545
0.09375 	-0.9375 	0.5 	17.39
0.109375 	-0.9375 	0.5 	16.742
0.125 	-0.9375 	0.5 	16.135
0.140625 	-0.9375 	0.5 	15.5094
0.15625 	-0.9375 	0.5 	14.9025
0.171875 	-0.9375 	0.5 	14.3234
0.1875 	-0.9375 	0.5 	13.865
0.203125 	-0.9375 	0.5 	13.3792
0.21875 	-0.9375 	0.5 	13.0025
0.234375 	-0.9375 	0.5 	12.4733
0.25 	-0.9375 	0.5 	12.0232
0.265625 	-0.9375 	0.5 	11.68
0.28125 	-0.9375 	0.5 	11.2919
0.296875 	-0.9375 	0.5 	11.0678
0.3125 	-0.9375 	0.5 	10.836
0.328125 	-0.9375 	0.5 	10.5164
0.34375 	-0.9375 	0.5 	10.26
0.359375 	-0.9375 	0.5 	10.1393
0.375 	-0.9375 	0.5 	10.0403
0.390625 	-0.9375 	0.5 	9.94953
0.40625 	-0.9375 	0.5 	9.82727
0.421875 	-0.9375 	0.5 	9.74139
0.4375 	-0.9375 	0.5 	9.84889
0.453125 	-0.9375 	0.5 	9.87336
0.46875 	-0.9375 	0.5 	9.92339
0.484375 	-0.9375 	0.5 	10.1111
0.5 	-0.9375 	0.5 	10.2631
0.515625 	-0.9375 	0.5 	10.5703
0.53125 	-0.9375 	0.5 	10.6347
0.546875 	-0.9375 	0.5 	10.8586
0.5625 	-0.9375 	0.5 	11.0529
0.578125 	-0.9375 	0.5 	11.5439
0.59375 	-0.9375 	0.5 	11.7315
0.609375 	-0.9375 	0.5 	12.0125
0.625 	-0.9375 	0.5 	12.3446
0.640625 	-0.9375 	0.5 	12.6662
0.65625 	-0.9375 	0.5 	13.0112
0.671875 	-0.9375 	0.5 	13.4061
0.6875 	-0.9375 	0.5 	13.8453
0.703125 	-0.9375 	0.5 	14.2384
0.71875 	-0.9375 	0.5 	14.6172
0.734375 	-0.9375 	0.5 	14.9975
0.75 	-0.9375 	0.5 	15.4343
0.765625 	-0.9375 	0.5 	16.2461
0.78125 	-0.9375 	0.5 	16.839
0.796875 	-0.9375 	0.5 	17.2112
0.8125 	-0.9375 	0.5 	17.6565
0.828125 	-0.9375 	0.5 	18.0789
0.84375 	-0.9375 	0.5 	18.5827
0.859375 	-0.9375 	0.5 	19.0312
0.875 	-0.9375 	0.5 	19.6564
0.890625 	-0.9375 	0.5 	20.1829
0.90625 	-0.9375 	0.5 	20.6617
0.921875 	-0.9375 	0.5 	21.2105
0.9375 	-0.9375 	0.5 	21.7342
0.953125 	-0.9375 	0.5 	22.2074
0.96875 	-0.9375 	0.5 	22.611
0.984375 	-0.9375 	0.5 	23.1007
1 	-0.9375 	0.5 	23.5979
1.01562 	-0.9375 	0.5 	24.0464
1.03125 	-0.9375 	0.5 	24.4983
1.04688 	-0.9375 	0.5 	24.8733
1.0625 	-0.9375 	0.5 	25.2636
1.07812 	-0.9375 	0.5 	25.7438
1.09375 	-0.9375 	0.5 	26.122
1.10938 	-0.9375 	0.5 	26.5097
1.125 	-0.9375 	0.5 	26.9706
1.14062 	-0.9375 	0.5 	27.3748
1.15625 	-0.9375 	0.5 	27.9489
1.17188 	-0.9375 	0.5 	28.3962
1.1875 	-0.9375 	0.5 	28.6954
1.20312 	-0.9375 	0.5 	29.031
1.21875 	-0.9375 	0.5 	29.2398
1.23438 	-0.9375 	0.5 	29.4907
1.25 	-0.9375 	0.5 	29.7785
1.26562 	-0.9375 	0.5 	30.0649
1.28125 	-0.9375 	0.5 	30.351
1.29688 	-0.9375 	0.5 	30.65
1.3125 	-0.9375 	0.5 	30.9955
1.32812 	-0.9375 	0.5 	31.2878
1.34375 	-0.9375 	0.5 	31.5131
1.35938 	-0.9375 	0.5 	31.6172
1.375 	-0.9375 	0.5 	31.8278
1.39062 	-0.9375 	0.5 	32.0458
1.40625 	-0.9375 	0.5 	32.2155
1.42188 	-0.9375 	0.5 	32.4724
1.4375 	-0.9375 	0.5 	32.7226
1.45312 	-0.9375 	0.5 	32.9973
1.46875 	-0.9375 	0.5 	33.0702
1.48438 	-0.9375 	0.5 	33.143
-0.5 	-0.921875 	0.5 	40.7055
-0.484375 	-0.921875 	0.5 	40.322
-0.46875 	-0.921875 	0.5 	39.8356
-0.453125 	-0.921875 	0.5 	39.5166
-0.4375 	-0.921875 	0.5 	39.1146
-0.421875 	-0.921875 	0.5 	38.6705
-0.40625 	-0.921875 	0.5 	38.2114
-0.390625 	-0.921875 	0.5 	37.7346
-0.375 	-0.921875 	0.5 	37.2115
-0.359375 	-0.921875 	0.5 	36.8914
-0.34375 	-0.921875 	0.5 	36.4662
-0.328125 	-0.921875 	0.5 	35.994
-0.3125 	-0.921875 	0.5 	35.5393
-0.296875 	-0.921875 	0.5 	34.9367
-0.28125 	-0.921875 	0.5 	34.285
-0.265625 	-0.921875 	0.5 	33.6294
-0.25 	-0.921875 	0.5 	32.7718
-0.234375 	-0.921875 	0.5 	32.21
-0.21875 	-0.921875 	0.5 	31.5305
-0.203125 	-0.921875 	0.5 	30.9253
-0.1875 	-0.921875 	0.5 	30.3363
-0.171875 	-0.921875 	0.5 	29.604
-0.15625 	-0.921875 	0.5 	28.8816
-0.140625 	-0.921875 	0.5 	28.1484
-0.125 	-0.921875 	0.5 	27.3356
-0.109375 	-0.921875 	0.5 	26.5346
-0.09375 	-0.921875 	0.5 	25.7588
-0.078125 	-0.921875 	0.5 	25.0641
-0.0625 	-0.921875 	0.5 	24.3258
-0.046875 	-0.921875 	0.5 	23.4727
-0.03125 	-0.921875 	0.5 	22.7323
-0.015625 	-0.921875 	0.5 	22.1074
0 	-0.921875 	0.5 	21.3158
0.015625 	-0.921875 	0.5 	20.6206
0.03125 	-0.921875 	0.5 	19.7222
0.046875 	-0.921875 	0.5 	18.8669
0.0625 	-0.921875 	0.5 	18.1317
0.078125 	-0.921875 	0.5 	17.6085
0.09375 	-0.921875 	0.5 	16.962
0.109375 	-0.921875 	0.5 	16.2204
0.125 	-0.921875 	0.5 	15.6011
0.140625 	-0.921875 	0.5 	14.8868
0.15625 	-0.921875 	0.5 	14.4549
0.171875 	-0.921875 	0.5 	13.7916
0.1875 	-0.921875 	0.5 	13.2361
0.203125 	-0.921875 	0.5 	12.7381
0.21875 	-0.921875 	0.5 	12.2846
0.234375 	-0.921875 	0.5 	11.6676
0.25 	-0.921875 	0.5 	11.2072
0.265625 	-0.921875 	0.5 	10.9208
0.28125 	-0.921875 	0.5 	10.5644
0.296875 	-0.921875 	0.5 	10.3426
0.3125 	-0.921875 	0.5 	10.0698
0.328125 	-0.921875 	0.5 	9.83229
0.34375 	-0.921875 	0.5 	9.63501
0.359375 	-0.921875 	0.5 	9.39913
0.375 	-0.921875 	0.5 	9.23499
0.390625 	-0.921875 	0.5 	9.17074
0.40625 	-0.921875 	0.5 	9.06761
0.421875 	-0.921875 	0.5 	8.98183
0.4375 	-0.921875 	0.5 	9.0674
0.453125 	-0.921875 	0.5 	9.1319
0.46875 	-0.921875 	0.5 	9.17946
0.484375 	-0.921875 	0.5 	9.32754
0.5 	-0.921875 	0.5 	9.32266
0.515625 	-0.921875 	0.5 	9.49377
0.53125 	-0.921875 	0.5 	9.85877
0.546875 	-0.921875 	0.5 	10.1404
0.5625 	-0.921875 	0.5 	10.403
0.578125 	-0.921875 	0.5 	10.7376
0.59375 	-0.921875 	0.5 	11.1092
0.609375 	-0.921875 	0.5 	11.4659
0.625 	-0.921875 	0.5 	11.7349
0.640625 	-0.921875 	0.5 	12.0795
0.65625 	-0.921875 	0.5 	12.4472
0.671875 	-0.921875 	0.5 	12.8906
0.6875 	-0.921875 	0.5 	13.4045
0.703125 	-0.921875 	0.5 	13.8584
0.71875 	-0.921875 	0.5 	14.2184
0.734375 	-0.921875 	0.5 	14.6381
0.75 	-0.921875 	0.5 	15.1114
0.765625 	-0.921875 	0.5 	15.8356
0.78125 	-0.921875 	0.5 	16.511
0.796875 	-0.921875 	0.5 	16.8885
0.8125 	-0.921875 	0.5 	17.3283
0.828125 	-0.921875 	0.5 	17.8143
0.84375 	-0.921875 	0.5 	18.3241
0.859375 	-0.921875 	0.5 	18.7755
0.875 	-0.921875 	0.5 	19.4645
0.890625 	-0.921875 	0.5 	19.9534
0.90625 	-0.921875 	0.5 	20.4604
0.921875 	-0.921875 	0.5 	21.0571
0.9375 	-0.921875 	0.5 	21.601
0.953125 	-0.921875 	0.5 	22.1032
0.96875 	-0.921875 	0.5 	22.5414
0.984375 	-0.921875 	0.5 	23.0341
1 	-0.921875 	0.5 	23.5298
1.01562 	-0.921875 	0.5 	24.0245
1.03125 	-0.921875 	0.5 	24.5482
1.04688 	-0.921875 	0.5 	24.9784
1.0625 	-0.921875 	0.5 	25.4064
1.07812 	-0.921875 	0.5 	25.8889
1.09375 	-0.921875 	0.5 	26.2276
1.10938 	-0.921875 	0.5 	26.6461
1.125 	-0.921875 	0.5 	27.0576
1.14062 	-0.921875 	0.5 	27.4698
1.15625 	-0.921875 	0.5 	27.9959
1.17188 	-0.921875 	0.5 	28.5313
1.1875 	-0.921875 	0.5 	28.7999
1.20312 	-0.921875 	0.5 	29.0539
1.21875 	-0.921875 	0.5 	29.2706
1.23438 	-0.921875 	0.5 	29.684
1.25 	-0.921875 	0.5 	29.9115
1.26562 	-0.921875 	0.5 	30.2307
1.28125 	-0.921875 	0.5 	30.5369
1.29688 	-0.921875 	0.5 	30.8699
1.3125 	-0.921875 	0.5 	31.2865
1.32812 	-0.921875 	0.5 	31.3968
1.34375 	-0.921875 	0.5 	31.7281
1.35938 	-0.921875 	0.5 	31.8535
1.375 	-0.921875 	0.5 	31.9258
1.39062 	-0.921875 	0.5 	32.1314
1.40625 	-0.921875 	0.5 	32.4004
1.42188 	-0.921875 	0.5 	32.6236
1.4375 	-0.921875 	0.5 	32.8482
1.45312 	-0.921875 	0.5 	32.9895
1.46875 	-0.921875 	0.5 	33.1338
1.48438 	-0.921875 	0.5 	33.2787
-0.5 	-0.90625 	0.5 	40.9591
-0.484375 	-0.90625 	0.5 	40.7067
-0.46875 	-0.90625 	0.5 	40.2953
-0.453125 	-0.90625 	0.5 	39.9359
-0.4375 	-0.90625 	0.5 	39.5305
-0.421875 	-0.90625 	0.5 	39.0879
-0.40625 	-0.90625 	0.5 	38.6166
-0.390625 	-0.90625 	0.5 	38.1801
-0.375 	-0.90625 	0.5 	37.673
-0.359375 	-0.90625 	0.5 	37.2083
-0.34375 	-0.90625 	0.5 	36.8021
-0.328125 	-0.90625 	0.5 	36.4276
-0.3125 	-0.90625 	0.5 	35.8794
-0.296875 	-0.90625 	0.5 	35.2716
-0.28125 	-0.90625 	0.5 	34.478
-0.265625 	-0.90625 	0.5 	33.7679
-0.25 	-0.90625 	0.5 	33.2557
-0.234375 	-0.90625 	0.5 	32.3126
-0.21875 	-0.90625 	0.5 	31.7335
-0.203125 	-0.90625 	0.5 	31.115
-0.1875 	-0.90625 	0.5 	30.4883
-0.171875 	-0.90625 	0.5 	29.6734
-0.15625 	-0.90625 	0.5 	28.9478
-0.140625 	-0.90625 	0.5 	28.1316
-0.125 	-0.90625 	0.5 	27.2898
-0.109375 	-0.90625 	0.5 	26.4928
-0.09375 	-0.90625 	0.5 	25.7242
-0.078125 	-0.90625 	0.5 	24.9412
-0.0625 	-0.90625 	0.5 	24.1291
-0.046875 	-0.90625 	0.5 	23.3158
-0.03125 	-0.90625 	0.5 	22.5782
-0.015625 	-0.90625 	0.5 	21.855
0 	-0.90625 	0.5 	21.137
0.015625 	-0.90625 	0.5 	20.3145
0.03125 	-0.90625 	0.5 	19.4772
0.046875 	-0.90625 	0.5 	18.6271
0.0625 	-0.90625 	0.5 	17.8163
0.078125 	-0.90625 	0.5 	17.1299
0.09375 	-0.90625 	0.5 	16.4435
0.109375 	-0.90625 	0.5 	15.7247
0.125 	-0.90625 	0.5 	14.9772
0.140625 	-0.90625 	0.5 	14.2432
0.15625 	-0.90625 	0.5 	13.6527
0.171875 	-0.90625 	0.5 	13.017
0.1875 	-0.90625 	0.5 	12.4913
0.203125 	-0.90625 	0.5 	12.109
0.21875 	-0.90625 	0.5 	11.4963
0.234375 	-0.90625 	0.5 	10.8521
0.25 	-0.90625 	0.5 	10.3533
0.265625 	-0.90625 	0.5 	10.0976
0.28125 	-0.90625 	0.5 	9.7662
0.296875 	-0.90625 	0.5 	9.5167
0.3125 	-0.90625 	0.5 	9.19642
0.328125 	-0.90625 	0.5 	9.01819
0.34375 	-0.90625 	0.5 	8.77093
0.359375 	-0.90625 	0.5 	8.55536
0.375 	-0.90625 	0.5 	8.19716
0.390625 	-0.90625 	0.5 	8.34095
0.40625 	-0.90625 	0.5 	8.31793
0.421875 	-0.90625 	0.5 	8.38926
0.4375 	-0.90625 	0.5 	8.36947
0.453125 	-0.90625 	0.5 	8.17264
0.46875 	-0.90625 	0.5 	8.24964
0.484375 	-0.90625 	0.5 	8.55364
0.5 	-0.90625 	0.5 	8.50672
0.515625 	-0.90625 	0.5 	8.79495
0.53125 	-0.90625 	0.5 	9.10515
0.546875 	-0.90625 	0.5 	9.39796
0.5625 	-0.90625 	0.5 	9.66048
0.578125 	-0.90625 	0.5 	10.0306
0.59375 	-0.90625 	0.5 	10.3713
0.609375 	-0.90625 	0.5 	10.7693
0.625 	-0.90625 	0.5 	11.2289
0.640625 	-0.90625 	0.5 	11.5598
0.65625 	-0.90625 	0.5 	11.9362
0.671875 	-0.90625 	0.5 	12.4351
0.6875 	-0.90625 	0.5 	12.9645
0.703125 	-0.90625 	0.5 	13.4206
0.71875 	-0.90625 	0.5 	13.8528
0.734375 	-0.90625 	0.5 	14.2759
0.75 	-0.90625 	0.5 	14.7885
0.765625 	-0.90625 	0.5 	15.4257
0.78125 	-0.90625 	0.5 	16.0281
0.796875 	-0.90625 	0.5 	16.5281
0.8125 	-0.90625 	0.5 	17.0129
0.828125 	-0.90625 	0.5 	17.5522
0.84375 	-0.90625 	0.5 	18.1924
0.859375 	-0.90625 	0.5 	18.6325
0.875 	-0.90625 	0.5 	19.1744
0.890625 	-0.90625 	0.5 	19.7328
0.90625 	-0.90625 	0.5 	20.3015
0.921875 	-0.90625 	0.5 	20.8402
0.9375 	-0.90625 	0.5 	21.4205
0.953125 	-0.90625 	0.5 	21.9912
0.96875 	-0.90625 	0.5 	22.4763
0.984375 	-0.90625 	0.5 	22.9674
1 	-0.90625 	0.5 	23.463
1.01562 	-0.90625 	0.5 	24.0186
1.03125 	-0.90625 	0.5 	24.5684
1.04688 	-0.90625 	0.5 	25.1652
1.0625 	-0.90625 	0.5 	25.5993
1.07812 	-0.90625 	0.5 	25.969
1.09375 	-0.90625 	0.5 	26.3552
1.10938 	-0.90625 	0.5 	26.7223
1.125 	-0.90625 	0.5 	27.1642
1.14062 	-0.90625 	0.5 	27.6939
1.15625 	-0.90625 	0.5 	28.0933
1.17188 	-0.90625 	0.5 	28.465
1.1875 	-0.90625 	0.5 	28.868
1.20312 	-0.90625 	0.5 	29.0938
1.21875 	-0.90625 	0.5 	29.3996
1.23438 	-0.90625 	0.5 	29.8075
1.25 	-0.90625 	0.5 	30.1326
1.26562 	-0.90625 	0.5 	30.4441
1.28125 	-0.90625 	0.5 	30.7309
1.29688 	-0.90625 	0.5 	31.0212
1.3125 	-0.90625 	0.5 	31.3843
1.32812 	-0.90625 	0.5 	31.6366
1.34375 	-0.90625 	0.5 	31.9059
1.35938 	-0.90625 	0.5 	32.0799
1.375 	-0.90625 	0.5 	32.1736
1.39062 	-0.90625 	0.5 	32.4011
1.40625 	-0.90625 	0.5 	32.6286
1.42188 	-0.90625 	0.5 	32.845
1.4375 	-0.90625 	0.5 	33.0263
1.45312 	-0.90625 	0.5 	33.1673
1.46875 	-0.90625 	0.5 	33.309
1.48438 	-0.90625 	0.5 	33.4557
-0.5 	-0.890625 	0.5 	41.2099
-0.484375 	-0.890625 	0.5 	41.0748
-0.46875 	-0.890625 	0.5 	40.7111
-0.453125 	-0.890625 	0.5 	40.3475
-0.4375 	-0.890625 	0.5 	39.9794
-0.421875 	-0.890625 	0.5 	39.4766
-0.40625 	-0.890625 	0.5 	39.0268
-0.390625 	-0.890625 	0.5 	38.5556
-0.375 	-0.890625 	0.5 	38.0839
-0.359375 	-0.890625 	0.5 	37.6098
-0.34375 	-0.890625 	0.5 	37.1266
-0.328125 	-0.890625 	0.5 	36.5705
-0.3125 	-0.890625 	0.5 	36.0161
-0.296875 	-0.890625 	0.5 	35.5316
-0.28125 	-0.890625 	0.5 	34.9836
-0.265625 	-0.890625 	0.5 	34.3129
-0.25 	-0.890625 	0.5 	33.5671
-0.234375 	-0.890625 	0.5 	32.7234
-0.21875 	-0.890625 	0.5 	31.9127
-0.203125 	-0.890625 	0.5 	31.3076
-0.1875 	-0.890625 	0.5 	30.5532
-0.171875 	-0.890625 	0.5 	29.7533
-0.15625 	-0.890625 	0.5 	28.9491
-0.140625 	-0.890625 	0.5 	28.1284
-0.125 	-0.890625 	0.5 	27.3178
-0.109375 	-0.890625 	0.5 	26.5136
-0.09375 	-0.890625 	0.5 	25.692
-0.078125 	-0.890625 	0.5 	24.8416
-0.0625 	-0.890625 	0.5 	24.0749
-0.046875 	-0.890625 	0.5 	23.2066
-0.03125 	-0.890625 	0.5 	22.2987
-0.015625 	-0.890625 	0.5 	21.4935
0 	-0.890625 	0.5 	20.8826
0.015625 	-0.890625 	0.5 	19.8744
0.03125 	-0.890625 	0.5 	18.8868
0.046875 	-0.890625 	0.5 	18.1597
0.0625 	-0.890625 	0.5 	17.4031
0.078125 	-0.890625 	0.5 	16.6763
0.09375 	-0.890625 	0.5 	16.0375
0.109375 	-0.890625 	0.5 	15.1967
0.125 	-0.890625 	0.5 	14.4759
0.140625 	-0.890625 	0.5 	13.7156
0.15625 	-0.890625 	0.5 	12.9907
0.171875 	-0.890625 	0.5 	12.4252
0.1875 	-0.890625 	0.5 	11.7098
0.203125 	-0.890625 	0.5 	11.2687
0.21875 	-0.890625 	0.5 	10.7212
0.234375 	-0.890625 	0.5 	10.099
0.25 	-0.890625 	0.5 	9.76466
0.265625 	-0.890625 	0.5 	9.43004
0.28125 	-0.890625 	0.5 	8.98883
0.296875 	-0.890625 	0.5 	8.63004
0.3125 	-0.890625 	0.5 	8.27467
0.328125 	-0.890625 	0.5 	8.11184