-0.5 	-1 	0.5 	-67.7705
-0.484375 	-1 	0.5 	-67.5096
-0.46875 	-1 	0.5 	-67.2435
-0.453125 	-1 	0.5 	-67.0043
-0.4375 	-1 	0.5 	-66.7646
-0.421875 	-1 	0.5 	-66.5249
-0.40625 	-1 	0.5 	-66.2752
-0.390625 	-1 	0.5 	-66.0932
-0.375 	-1 	0.5 	-65.8686
-0.359375 	-1 	0.5 	-65.644
-0.34375 	-1 	0.5 	-65.4029
-0.328125 	-1 	0.5 	-65.1557
-0.3125 	-1 	0.5 	-64.902
-0.296875 	-1 	0.5 	-64.6576
-0.28125 	-1 	0.5 	-64.4218
-0.265625 	-1 	0.5 	-64.187
-0.25 	-1 	0.5 	-63.9816
-0.234375 	-1 	0.5 	-63.8146
-0.21875 	-1 	0.5 	-63.606
-0.203125 	-1 	0.5 	-63.3882
-0.1875 	-1 	0.5 	-63.179
-0.171875 	-1 	0.5 	-62.985
-0.15625 	-1 	0.5 	-62.7909
-0.140625 	-1 	0.5 	-62.6196
-0.125 	-1 	0.5 	-62.3638
-0.109375 	-1 	0.5 	-62.1335
-0.09375 	-1 	0.5 	-61.9727
-0.078125 	-1 	0.5 	-61.7902
-0.0625 	-1 	0.5 	-61.5967
-0.046875 	-1 	0.5 	-61.3945
-0.03125 	-1 	0.5 	-61.2035
-0.015625 	-1 	0.5 	-61.0107
0 	-1 	0.5 	-60.8121
0.015625 	-1 	0.5 	-60.6161
0.03125 	-1 	0.5 	-60.4409
0.046875 	-1 	0.5 	-60.2764
0.0625 	-1 	0.5 	-60.0977
0.078125 	-1 	0.5 	-59.9483
0.09375 	-1 	0.5 	-59.7879
0.109375 	-1 	0.5 	-59.606
0.125 	-1 	0.5 	-59.476
0.140625 	-1 	0.5 	-59.2875
0.15625 	-1 	0.5 	-59.1202
0.171875 	-1 	0.5 	-58.9639
0.1875 	-1 	0.5 	-58.8169
0.203125 	-1 	0.5 	-58.658
0.21875 	-1 	0.5 	-58.5432
0.234375 	-1 	0.5 	-58.3757
0.25 	-1 	0.5 	-58.2485
0.265625 	-1 	0.5 	-58.1491
0.28125 	-1 	0.5 	-58.0372
0.296875 	-1 	0.5 	-57.8744
0.3125 	-1 	0.5 	-57.7338
0.328125 	-1 	0.5 	-57.645
0.34375 	-1 	0.5 	-57.5564
0.359375 	-1 	0.5 	-57.4508
0.375 	-1 	0.5 	-57.3445
0.390625 	-1 	0.5 	-57.2652
0.40625 	-1 	0.5 	-57.1939
0.421875 	-1 	0.5 	-57.0932
0.4375 	-1 	0.5 	-57.0267
0.453125 	-1 	0.5 	-57.0447
0.46875 	-1 	0.5 	-57.0022
0.484375 	-1 	0.5 	-56.9769
0.5 	-1 	0.5 	-56.9451
0.515625 	-1 	0.5 	-56.9029
0.53125 	-1 	0.5 	-56.892
0.546875 	-1 	0.5 	-56.8881
0.5625 	-1 	0.5 	-56.9019
0.578125 	-1 	0.5 	-56.9252
0.59375 	-1 	0.5 	-56.9485
0.609375 	-1 	0.5 	-56.9757
0.625 	-1 	0.5 	-57.0144
0.640625 	-1 	0.5 	-57.0593
0.65625 	-1 	0.5 	-57.1355
0.671875 	-1 	0.5 	-57.2049
0.6875 	-1 	0.5 	-57.2683
0.703125 	-1 	0.5 	-57.3651
0.71875 	-1 	0.5 	-57.4671
0.734375 	-1 	0.5 	-57.5673
0.75 	-1 	0.5 	-57.6766
0.765625 	-1 	0.5 	-57.7922
0.78125 	-1 	0.5 	-57.9588
0.796875 	-1 	0.5 	-58.1749
0.8125 	-1 	0.5 	-58.3047
0.828125 	-1 	0.5 	-58.4126
0.84375 	-1 	0.5 	-58.5918
0.859375 	-1 	0.5 	-58.7492
0.875 	-1 	0.5 	-58.937
0.890625 	-1 	0.5 	-59.2139
0.90625 	-1 	0.5 	-59.4447
0.921875 	-1 	0.5 	-59.6094
0.9375 	-1 	0.5 	-59.8032
0.953125 	-1 	0.5 	-60.0133
0.96875 	-1 	0.5 	-60.2543
0.984375 	-1 	0.5 	-60.4026
1 	-1 	0.5 	-60.7048
1.01562 	-1 	0.5 	-61.0181
1.03125 	-1 	0.5 	-61.2853
1.04688 	-1 	0.5 	-61.4584
1.0625 	-1 	0.5 	-61.7124
1.07812 	-1 	0.5 	-62.0005
1.09375 	-1 	0.5 	-62.2849
1.10938 	-1 	0.5 	-62.5913
1.125 	-1 	0.5 	-62.8524
1.14062 	-1 	0.5 	-63.1844
1.15625 	-1 	0.5 	-63.4366
1.17188 	-1 	0.5 	-63.7167
1.1875 	-1 	0.5 	-64.0608
1.20312 	-1 	0.5 	-64.3601
1.21875 	-1 	0.5 	-64.6585
1.23438 	-1 	0.5 	-64.9336
1.25 	-1 	0.5 	-65.1964
1.26562 	-1 	0.5 	-65.5865
1.28125 	-1 	0.5 	-65.8699
1.29688 	-1 	0.5 	-66.1501
1.3125 	-1 	0.5 	-66.4427
1.32812 	-1 	0.5 	-66.7378
1.34375 	-1 	0.5 	-67.0623
1.35938 	-1 	0.5 	-67.3955
1.375 	-1 	0.5 	-67.7039
1.39062 	-1 	0.5 	-68.0045
1.40625 	-1 	0.5 	-68.2889
1.42188 	-1 	0.5 	-68.5989
1.4375 	-1 	0.5 	-68.9218
1.45312 	-1 	0.5 	-69.2165
1.46875 	-1 	0.5 	-69.4752
1.48438 	-1 	0.5 	-69.7597
-0.5 	-0.984375 	0.5 	-67.6362
-0.484375 	-0.984375 	0.5 	-67.392
-0.46875 	-0.984375 	0.5 	-67.1235
-0.453125 	-0.984375 	0.5 	-66.8698
-0.4375 	-0.984375 	0.5 	-66.6518
-0.421875 	-0.984375 	0.5 	-66.3802
-0.40625 	-0.984375 	0.5 	-66.1651
-0.390625 	-0.984375 	0.5 	-65.9297
-0.375 	-0.984375 	0.5 	-65.7703
-0.359375 	-0.984375 	0.5 	-65.4862
-0.34375 	-0.984375 	0.5 	-65.2274
-0.328125 	-0.984375 	0.5 	-64.9328
-0.3125 	-0.984375 	0.5 	-64.7121
-0.296875 	-0.984375 	0.5 	-64.4538
-0.28125 	-0.984375 	0.5 	-64.2348
-0.265625 	-0.984375 	0.5 	-64.0257
-0.25 	-0.984375 	0.5 	-63.8134
-0.234375 	-0.984375 	0.5 	-63.6384
-0.21875 	-0.984375 	0.5 	-63.4753
-0.203125 	-0.984375 	0.5 	-63.1766
-0.1875 	-0.984375 	0.5 	-62.962
-0.171875 	-0.984375 	0.5 	-62.78
-0.15625 	-0.984375 	0.5 	-62.5865
-0.140625 	-0.984375 	0.5 	-62.3848
-0.125 	-0.984375 	0.5 	-62.1773
-0.109375 	-0.984375 	0.5 	-61.9753
-0.09375 	-0.984375 	0.5 	-61.7641
-0.078125 	-0.984375 	0.5 	-61.5651
-0.0625 	-0.984375 	0.5 	-61.3583
-0.046875 	-0.984375 	0.5 	-61.1577
-0.03125 	-0.984375 	0.5 	-60.9637
-0.015625 	-0.984375 	0.5 	-60.7722
0 	-0.984375 	0.5 	-60.5746
0.015625 	-0.984375 	0.5 	-60.3709
0.03125 	-0.984375 	0.5 	-60.2039
0.046875 	-0.984375 	0.5 	-60.0371
0.0625 	-0.984375 	0.5 	-59.8536
0.078125 	-0.984375 	0.5 	-59.6841
0.09375 	-0.984375 	0.5 	-59.5335
0.109375 	-0.984375 	0.5 	-59.313
0.125 	-0.984375 	0.5 	-59.1478
0.140625 	-0.984375 	0.5 	-59.016
0.15625 	-0.984375 	0.5 	-58.8503
0.171875 	-0.984375 	0.5 	-58.667
0.1875 	-0.984375 	0.5 	-58.5202
0.203125 	-0.984375 	0.5 	-58.3628
0.21875 	-0.984375 	0.5 	-58.2342
0.234375 	-0.984375 	0.5 	-58.1082
0.25 	-0.984375 	0.5 	-57.9471
0.265625 	-0.984375 	0.5 	-57.7812
0.28125 	-0.984375 	0.5 	-57.6514
0.296875 	-0.984375 	0.5 	-57.5188
0.3125 	-0.984375 	0.5 	-57.3648
0.328125 	-0.984375 	0.5 	-57.287
0.34375 	-0.984375 	0.5 	-57.2014
0.359375 	-0.984375 	0.5 	-57.0957
0.375 	-0.984375 	0.5 	-56.9824
0.390625 	-0.984375 	0.5 	-56.9295
0.40625 	-0.984375 	0.5 	-56.8542
0.421875 	-0.984375 	0.5 	-56.7676
0.4375 	-0.984375 	0.5 	-56.6379
0.453125 	-0.984375 	0.5 	-56.6381
0.46875 	-0.984375 	0.5 	-56.6334
0.484375 	-0.984375 	0.5 	-56.5408
0.5 	-0.984375 	0.5 	-56.5513
0.515625 	-0.984375 	0.5 	-56.5142
0.53125 	-0.984375 	0.5 	-56.5034
0.546875 	-0.984375 	0.5 	-56.4829
0.5625 	-0.984375 	0.5 	-56.5408
0.578125 	-0.984375 	0.5 	-56.5307
0.59375 	-0.984375 	0.5 	-56.5538
0.609375 	-0.984375 	0.5 	-56.5193
0.625 	-0.984375 	0.5 	-56.5639
0.640625 	-0.984375 	0.5 	-56.6832
0.65625 	-0.984375 	0.5 	-56.741
0.671875 	-0.984375 	0.5 	-56.8101
0.6875 	-0.984375 	0.5 	-56.8902
0.703125 	-0.984375 	0.5 	-56.9871
0.71875 	-0.984375 	0.5 	-57.0807
0.734375 	-0.984375 	0.5 	-57.1788
0.75 	-0.984375 	0.5 	-57.2788
0.765625 	-0.984375 	0.5 	-57.4008
0.78125 	-0.984375 	0.5 	-57.5536
0.796875 	-0.984375 	0.5 	-57.7349
0.8125 	-0.984375 	0.5 	-57.9162
0.828125 	-0.984375 	0.5 	-58.0789
0.84375 	-0.984375 	0.5 	-58.2385
0.859375 	-0.984375 	0.5 	-58.4164
0.875 	-0.984375 	0.5 	-58.5435
0.890625 	-0.984375 	0.5 	-58.88
0.90625 	-0.984375 	0.5 	-59.1327
0.921875 	-0.984375 	0.5 	-59.3351
0.9375 	-0.984375 	0.5 	-59.4426
0.953125 	-0.984375 	0.5 	-59.5858
0.96875 	-0.984375 	0.5 	-59.9511
0.984375 	-0.984375 	0.5 	-60.1705
1 	-0.984375 	0.5 	-60.4043
1.01562 	-0.984375 	0.5 	-60.6835
1.03125 	-0.984375 	0.5 	-60.9973
1.04688 	-0.984375 	0.5 	-61.1921
1.0625 	-0.984375 	0.5 	-61.4646
1.07812 	-0.984375 	0.5 	-61.7024
1.09375 	-0.984375 	0.5 	-62.0468
1.10938 	-0.984375 	0.5 	-62.346
1.125 	-0.984375 	0.5 	-62.6128
1.14062 	-0.984375 	0.5 	-62.9642
1.15625 	-0.984375 	0.5 	-63.2571
1.17188 	-0.984375 	0.5 	-63.5465
1.1875 	-0.984375 	0.5 	-63.8639
1.20312 	-0.984375 	0.5 	-64.1813
1.21875 	-0.984375 	0.5 	-64.4698
1.23438 	-0.984375 	0.5 	-64.7094
1.25 	-0.984375 	0.5 	-65.0027
1.26562 	-0.984375 	0.5 	-65.3959
1.28125 	-0.984375 	0.5 	-65.6837
1.29688 	-0.984375 	0.5 	-65.9085
1.3125 	-0.984375 	0.5 	-66.3072
1.32812 	-0.984375 	0.5 	-66.6008
1.34375 	-0.984375 	0.5 	-66.9491
1.35938 	-0.984375 	0.5 	-67.2859
1.375 	-0.984375 	0.5 	-67.5956
1.39062 	-0.984375 	0.5 	-67.8931
1.40625 	-0.984375 	0.5 	-68.2026
1.42188 	-0.984375 	0.5 	-68.5091
1.4375 	-0.984375 	0.5 	-68.8098
1.45312 	-0.984375 	0.5 	-69.0986
1.46875 	-0.984375 	0.5 	-69.3874
1.48438 	-0.984375 	0.5 	-69.7184
-0.5 	-0.96875 	0.5 	-67.5138
-0.484375 	-0.96875 	0.5 	-67.2638
-0.46875 	-0.96875 	0.5 	-67.0022
-0.453125 	-0.96875 	0.5 	-66.7404
-0.4375 	-0.96875 	0.5 	-66.4937
-0.421875 	-0.96875 	0.5 	-66.2509
-0.40625 	-0.96875 	0.5 	-66.038
-0.390625 	-0.96875 	0.5 	-65.7877
-0.375 	-0.96875 	0.5 	-65.5724
-0.359375 	-0.96875 	0.5 	-65.2985
-0.34375 	-0.96875 	0.5 	-65.0474
-0.328125 	-0.96875 	0.5 	-64.8236
-0.3125 	-0.96875 	0.5 	-64.5684
-0.296875 	-0.96875 	0.5 	-64.3239
-0.28125 	-0.96875 	0.5 	-64.0733
-0.265625 	-0.96875 	0.5 	-63.835
-0.25 	-0.96875 	0.5 	-63.6529
-0.234375 	-0.96875 	0.5 	-63.3837
-0.21875 	-0.96875 	0.5 	-63.2561
-0.203125 	-0.96875 	0.5 	-62.9538
-0.1875 	-0.96875 	0.5 	-62.765
-0.171875 	-0.96875 	0.5 	-62.5443
-0.15625 	-0.96875 	0.5 	-62.3306
-0.140625 	-0.96875 	0.5 	-62.1345
-0.125 	-0.96875 	0.5 	-61.929
-0.109375 	-0.96875 	0.5 	-61.7356
-0.09375 	-0.96875 	0.5 	-61.5396
-0.078125 	-0.96875 	0.5 	-61.3366
-0.0625 	-0.96875 	0.5 	-61.1242
-0.046875 	-0.96875 	0.5 	-60.9208
-0.03125 	-0.96875 	0.5 	-60.7204
-0.015625 	-0.96875 	0.5 	-60.521
0 	-0.96875 	0.5 	-60.3132
0.015625 	-0.96875 	0.5 	-60.1331
0.03125 	-0.96875 	0.5 	-59.9525
0.046875 	-0.96875 	0.5 	-59.7709
0.0625 	-0.96875 	0.5 	-59.5529
0.078125 	-0.96875 	0.5 	-59.4632
0.09375 	-0.96875 	0.5 	-59.2332
0.109375 	-0.96875 	0.5 	-59.0244
0.125 	-0.96875 	0.5 	-58.9053
0.140625 	-0.96875 	0.5 	-58.7013
0.15625 	-0.96875 	0.5 	-58.5239
0.171875 	-0.96875 	0.5 	-58.3509
0.1875 	-0.96875 	0.5 	-58.2076
0.203125 	-0.96875 	0.5 	-58.0619
0.21875 	-0.96875 	0.5 	-57.9317
0.234375 	-0.96875 	0.5 	-57.8382
0.25 	-0.96875 	0.5 	-57.6795
0.265625 	-0.96875 	0.5 	-57.4682
0.28125 	-0.96875 	0.5 	-57.3326
0.296875 	-0.96875 	0.5 	-57.1704
0.3125 	-0.96875 	0.5 	-57.0303
0.328125 	-0.96875 	0.5 	-56.9205
0.34375 	-0.96875 	0.5 	-56.8479
0.359375 	-0.96875 	0.5 	-56.7284
0.375 	-0.96875 	0.5 	-56.6137
0.390625 	-0.96875 	0.5 	-56.5542
0.40625 	-0.96875 	0.5 	-56.5056
0.421875 	-0.96875 	0.5 	-56.2531
0.4375 	-0.96875 	0.5 	-56.245
0.453125 	-0.96875 	0.5 	-56.158
0.46875 	-0.96875 	0.5 	-56.1793
0.484375 	-0.96875 	0.5 	-56.1204
0.5 	-0.96875 	0.5 	-56.1331
0.515625 	-0.96875 	0.5 	-56.1158
0.53125 	-0.96875 	0.5 	-56.0963
0.546875 	-0.96875 	0.5 	-56.075
0.5625 	-0.96875 	0.5 	-56.1196
0.578125 	-0.96875 	0.5 	-56.1805
0.59375 	-0.96875 	0.5 	-56.1485
0.609375 	-0.96875 	0.5 	-56.1429
0.625 	-0.96875 	0.5 	-56.2331
0.640625 	-0.96875 	0.5 	-56.256
0.65625 	-0.96875 	0.5 	-56.3108
0.671875 	-0.96875 	0.5 	-56.4356
0.6875 	-0.96875 	0.5 	-56.5151
0.703125 	-0.96875 	0.5 	-56.6139
0.71875 	-0.96875 	0.5 	-56.7018
0.734375 	-0.96875 	0.5 	-56.7864
0.75 	-0.96875 	0.5 	-56.865
0.765625 	-0.96875 	0.5 	-56.9831
0.78125 	-0.96875 	0.5 	-57.2321
0.796875 	-0.96875 	0.5 	-57.4138
0.8125 	-0.96875 	0.5 	-57.517
0.828125 	-0.96875 	0.5 	-57.7163
0.84375 	-0.96875 	0.5 	-57.8628
0.859375 	-0.96875 	0.5 	-58.0883
0.875 	-0.96875 	0.5 	-58.3161
0.890625 	-0.96875 	0.5 	-58.5281
0.90625 	-0.96875 	0.5 	-58.7713
0.921875 	-0.96875 	0.5 	-59.0214
0.9375 	-0.96875 	0.5 	-59.1979
0.953125 	-0.96875 	0.5 	-59.4057
0.96875 	-0.96875 	0.5 	-59.6359
0.984375 	-0.96875 	0.5 	-59.9081
1 	-0.96875 	0.5 	-60.1708
1.01562 	-0.96875 	0.5 	-60.4335
1.03125 	-0.96875 	0.5 	-60.6887
1.04688 	-0.96875 	0.5 	-60.9178
1.0625 	-0.96875 	0.5 	-61.1439
1.07812 	-0.96875 	0.5 	-61.4379
1.09375 	-0.96875 	0.5 	-61.7872
1.10938 	-0.96875 	0.5 	-62.0845
1.125 	-0.96875 	0.5 	-62.3803
1.14062 	-0.96875 	0.5 	-62.6721
1.15625 	-0.96875 	0.5 	-62.99
1.17188 	-0.96875 	0.5 	-63.3284
1.1875 	-0.96875 	0.5 	-63.7209
1.20312 	-0.96875 	0.5 	-64.0058
1.21875 	-0.96875 	0.5 	-64.2607
1.23438 	-0.96875 	0.5 	-64.5756
1.25 	-0.96875 	0.5 	-64.8858
1.26562 	-0.96875 	0.5 	-65.2006
1.28125 	-0.96875 	0.5 	-65.4606
1.29688 	-0.96875 	0.5 	-65.7808
1.3125 	-0.96875 	0.5 	-66.1187
1.32812 	-0.96875 	0.5 	-66.4652
1.34375 	-0.96875 	0.5 	-66.8035
1.35938 	-0.96875 	0.5 	-67.1461
1.375 	-0.96875 	0.5 	-67.4789
1.39062 	-0.96875 	0.5 	-67.7786
1.40625 	-0.96875 	0.5 	-68.0916
1.42188 	-0.96875 	0.5 	-68.3838
1.4375 	-0.96875 	0.5 	-68.7095
1.45312 	-0.96875 	0.5 	-68.9984
1.46875 	-0.96875 	0.5 	-69.3289
1.48438 	-0.96875 	0.5 	-69.6605
-0.5 	-0.953125 	0.5 	-67.3798
-0.484375 	-0.953125 	0.5 	-67.1357
-0.46875 	-0.953125 	0.5 	-66.8771
-0.453125 	-0.953125 	0.5 	-66.6151
-0.4375 	-0.953125 	0.5 	-66.3531
-0.421875 	-0.953125 	0.5 	-66.1061
-0.40625 	-0.953125 	0.5 	-65.869
-0.390625 	-0.953125 	0.5 	-65.6319
-0.375 	-0.953125 	0.5 	-65.3803
-0.359375 	-0.953125 	0.5 	-65.1389
-0.34375 	-0.953125 	0.5 	-64.8958
-0.328125 	-0.953125 	0.5 	-64.6519
-0.3125 	-0.953125 	0.5 	-64.3949
-0.296875 	-0.953125 	0.5 	-64.078
-0.28125 	-0.953125 	0.5 	-63.8425
-0.265625 	-0.953125 	0.5 	-63.6236
-0.25 	-0.953125 	0.5 	-63.4556
-0.234375 	-0.953125 	0.5 	-63.2976
-0.21875 	-0.953125 	0.5 	-62.9573
-0.203125 	-0.953125 	0.5 	-62.7376
-0.1875 	-0.953125 	0.5 	-62.5659
-0.171875 	-0.953125 	0.5 	-62.3221
-0.15625 	-0.953125 	0.5 	-62.0992
-0.140625 	-0.953125 	0.5 	-61.9002
-0.125 	-0.953125 	0.5 	-61.7032
-0.109375 	-0.953125 	0.5 	-61.5119
-0.09375 	-0.953125 	0.5 	-61.3094
-0.078125 	-0.953125 	0.5 	-61.1145
-0.0625 	-0.953125 	0.5 	-60.8946
-0.046875 	-0.953125 	0.5 	-60.6762
-0.03125 	-0.953125 	0.5 	-60.4773
-0.015625 	-0.953125 	0.5 	-60.2731
0 	-0.953125 	0.5 	-60.0791
0.015625 	-0.953125 	0.5 	-59.8764
0.03125 	-0.953125 	0.5 	-59.6881
0.046875 	-0.953125 	0.5 	-59.4646
0.0625 	-0.953125 	0.5 	-59.283
0.078125 	-0.953125 	0.5 	-59.1069
0.09375 	-0.953125 	0.5 	-58.9462
0.109375 	-0.953125 	0.5 	-58.7911
0.125 	-0.953125 	0.5 	-58.622
0.140625 	-0.953125 	0.5 	-58.4578
0.15625 	-0.953125 	0.5 	-58.239
0.171875 	-0.953125 	0.5 	-58.0297
0.1875 	-0.953125 	0.5 	-57.8822
0.203125 	-0.953125 	0.5 	-57.7435
0.21875 	-0.953125 	0.5 	-57.5823
0.234375 	-0.953125 	0.5 	-57.4743
0.25 	-0.953125 	0.5 	-57.3082
0.265625 	-0.953125 	0.5 	-57.1244
0.28125 	-0.953125 	0.5 	-56.9932
0.296875 	-0.953125 	0.5 	-56.8717
0.3125 	-0.953125 	0.5 	-56.7243
0.328125 	-0.953125 	0.5 	-56.6009
0.34375 	-0.953125 	0.5 	-56.4875
0.359375 	-0.953125 	0.5 	-56.3895
0.375 	-0.953125 	0.5 	-56.2441
0.390625 	-0.953125 	0.5 	-56.1569
0.40625 	-0.953125 	0.5 	-56.1252
0.421875 	-0.953125 	0.5 	-55.9454
0.4375 	-0.953125 	0.5 	-55.8382
0.453125 	-0.953125 	0.5 	-55.837
0.46875 	-0.953125 	0.5 	-55.7865
0.484375 	-0.953125 	0.5 	-55.7369
0.5 	-0.953125 	0.5 	-55.7234
0.515625 	-0.953125 	0.5 	-55.7094
0.53125 	-0.953125 	0.5 	-55.7095
0.546875 	-0.953125 	0.5 	-55.6782
0.5625 	-0.953125 	0.5 	-55.6589
0.578125 	-0.953125 	0.5 	-55.6743
0.59375 	-0.953125 	0.5 	-55.7055
0.609375 	-0.953125 	0.5 	-55.8159
0.625 	-0.953125 	0.5 	-55.7796
0.640625 	-0.953125 	0.5 	-55.8033
0.65625 	-0.953125 	0.5 	-55.8634
0.671875 	-0.953125 	0.5 	-55.9907
0.6875 	-0.953125 	0.5 	-56.134
0.703125 	-0.953125 	0.5 	-56.1983
0.71875 	-0.953125 	0.5 	-56.2748
0.734375 	-0.953125 	0.5 	-56.3848
0.75 	-0.953125 	0.5 	-56.4726
0.765625 	-0.953125 	0.5 	-56.6311
0.78125 	-0.953125 	0.5 	-56.8496
0.796875 	-0.953125 	0.5 	-56.986
0.8125 	-0.953125 	0.5 	-57.0996
0.828125 	-0.953125 	0.5 	-57.2945
0.84375 	-0.953125 	0.5 	-57.5305
0.859375 	-0.953125 	0.5 	-57.8854
0.875 	-0.953125 	0.5 	-58.0343
0.890625 	-0.953125 	0.5 	-58.0335
0.90625 	-0.953125 	0.5 	-58.2865
0.921875 	-0.953125 	0.5 	-58.6038
0.9375 	-0.953125 	0.5 	-58.8501
0.953125 	-0.953125 	0.5 	-59.0245
0.96875 	-0.953125 	0.5 	-59.3183
0.984375 	-0.953125 	0.5 	-59.5607
1 	-0.953125 	0.5 	-59.839
1.01562 	-0.953125 	0.5 	-60.0902
1.03125 	-0.953125 	0.5 	-60.393
1.04688 	-0.953125 	0.5 	-60.7044
1.0625 	-0.953125 	0.5 	-61.0367
1.07812 	-0.953125 	0.5 	-61.2189
1.09375 	-0.953125 	0.5 	-61.5192
1.10938 	-0.953125 	0.5 	-61.8342
1.125 	-0.953125 	0.5 	-62.1201
1.14062 	-0.953125 	0.5 	-62.4314
1.15625 	-0.953125 	0.5 	-62.8097
1.17188 	-0.953125 	0.5 	-63.1484
1.1875 	-0.953125 	0.5 	-63.5047
1.20312 	-0.953125 	0.5 	-63.7264
1.21875 	-0.953125 	0.5 	-64.0289
1.23438 	-0.953125 	0.5 	-64.2881
1.25 	-0.953125 	0.5 	-64.6563
1.26562 	-0.953125 	0.5 	-65.0642
1.28125 	-0.953125 	0.5 	-65.3504
1.29688 	-0.953125 	0.5 	-65.6504
1.3125 	-0.953125 	0.5 	-65.9796
1.32812 	-0.953125 	0.5 	-66.3377
1.34375 	-0.953125 	0.5 	-66.6959
1.35938 	-0.953125 	0.5 	-67.0566
1.375 	-0.953125 	0.5 	-67.3567
1.39062 	-0.953125 	0.5 	-67.6555
1.40625 	-0.953125 	0.5 	-67.9767
1.42188 	-0.953125 	0.5 	-68.3051
1.4375 	-0.953125 	0.5 	-68.6091
1.45312 	-0.953125 	0.5 	-68.9311
1.46875 	-0.953125 	0.5 	-69.292
1.48438 	-0.953125 	0.5 	-69.6152
-0.5 	-0.9375 	0.5 	-67.2739
-0.484375 	-0.9375 	0.5 	-67.0073
-0.46875 	-0.9375 	0.5 	-66.712
-0.453125 	-0.9375 	0.5 	-66.4392
-0.4375 	-0.9375 	0.5 	-66.1898
-0.421875 	-0.9375 	0.5 	-65.9341
-0.40625 	-0.9375 	0.5 	-65.7066
-0.390625 	-0.9375 	0.5 	-65.4646
-0.375 	-0.9375 	0.5 	-65.1966
-0.359375 	-0.9375 	0.5 	-64.937
-0.34375 	-0.9375 	0.5 	-64.6988
-0.328125 	-0.9375 	0.5 	-64.4768
-0.3125 	-0.9375 	0.5 	-64.2501
-0.296875 	-0.9375 	0.5 	-63.9681
-0.28125 	-0.9375 	0.5 	-63.7314
-0.265625 	-0.9375 	0.5 	-63.4235
-0.25 	-0.9375 	0.5 	-63.2587
-0.234375 	-0.9375 	0.5 	-63.0377
-0.21875 	-0.9375 	0.5 	-62.7359
-0.203125 	-0.9375 	0.5 	-62.5102
-0.1875 	-0.9375 	0.5 	-62.3971
-0.171875 	-0.9375 	0.5 	-62.1055
-0.15625 	-0.9375 	0.5 	-61.8398
-0.140625 	-0.9375 	0.5 	-61.6849
-0.125 	-0.9375 	0.5 	-61.478
-0.109375 	-0.9375 	0.5 	-61.2746
-0.09375 	-0.9375 	0.5 	-61.0765
-0.078125 	-0.9375 	0.5 	-60.8691
-0.0625 	-0.9375 	0.5 	-60.6491
-0.046875 	-0.9375 	0.5 	-60.4281
-0.03125 	-0.9375 	0.5 	-60.2268
-0.015625 	-0.9375 	0.5 	-60.0284
0 	-0.9375 	0.5 	-59.8264
0.015625 	-0.9375 	0.5 	-59.6176
0.03125 	-0.9375 	0.5 	-59.4285
0.046875 	-0.9375 	0.5 	-59.2006
0.0625 	-0.9375 	0.5 	-59.0407
0.078125 	-0.9375 	0.5 	-58.8353
0.09375 	-0.9375 	0.5 	-58.6818
0.109375 	-0.9375 	0.5 	-58.427
0.125 	-0.9375 	0.5 	-58.3739
0.140625 	-0.9375 	0.5 	-58.1522
0.15625 	-0.9375 	0.5 	-57.9144
0.171875 	-0.9375 	0.5 	-57.7198
0.1875 	-0.9375 	0.5 	-57.5669
0.203125 	-0.9375 	0.5 	-57.4286
0.21875 	-0.9375 	0.5 	-57.2737
0.234375 	-0.9375 	0.5 	-57.0944
0.25 	-0.9375 	0.5 	-56.9297
0.265625 	-0.9375 	0.5 	-56.7679
0.28125 	-0.9375 	0.5 	-56.6337
0.296875 	-0.9375 	0.5 	-56.5198
0.3125 	-0.9375 	0.5 	-56.3906
0.328125 	-0.9375 	0.5 	-56.2623
0.34375 	-0.9375 	0.5 	-56.1289
0.359375 	-0.9375 	0.5 	-56.0336
0.375 	-0.9375 	0.5 	-55.8779
0.390625 	-0.9375 	0.5 	-55.8262
0.40625 	-0.9375 	0.5 	-55.7058
0.421875 	-0.9375 	0.5 	-55.5917
0.4375 	-0.9375 	0.5 	-55.5265
0.453125 	-0.9375 	0.5 	-55.4619
0.46875 	-0.9375 	0.5 	-55.3948
0.484375 	-0.9375 	0.5 	-55.3443
0.5 	-0.9375 	0.5 	-55.3174
0.515625 	-0.9375 	0.5 	-55.2863
0.53125 	-0.9375 	0.5 	-55.265
0.546875 	-0.9375 	0.5 	-55.2542
0.5625 	-0.9375 	0.5 	-55.1922
0.578125 	-0.9375 	0.5 	-55.2271
0.59375 	-0.9375 	0.5 	-55.2901
0.609375 	-0.9375 	0.5 	-55.2928
0.625 	-0.9375 	0.5 	-55.4391
0.640625 	-0.9375 	0.5 	-55.3769
0.65625 	-0.9375 	0.5 	-55.4386
0.671875 	-0.9375 	0.5 	-55.5908
0.6875 	-0.9375 	0.5 	-55.6423
0.703125 	-0.9375 	0.5 	-55.7879
0.71875 	-0.9375 	0.5 	-55.874
0.734375 	-0.9375 	0.5 	-55.9728
0.75 	-0.9375 	0.5 	-56.0934
0.765625 	-0.9375 	0.5 	-56.2175
0.78125 	-0.9375 	0.5 	-56.446
0.796875 	-0.9375 	0.5 	-56.5785
0.8125 	-0.9375 	0.5 	-56.7556
0.828125 	-0.9375 	0.5 	-56.9645
0.84375 	-0.9375 	0.5 	-57.115
0.859375 	-0.9375 	0.5 	-57.3256
0.875 	-0.9375 	0.5 	-57.5376
0.890625 	-0.9375 	0.5 	-57.6732
0.90625 	-0.9375 	0.5 	-57.9087
0.921875 	-0.9375 	0.5 	-58.145
0.9375 	-0.9375 	0.5 	-58.413
0.953125 	-0.9375 	0.5 	-58.6932
0.96875 	-0.9375 	0.5 	-58.9547
0.984375 	-0.9375 	0.5 	-59.2212
1 	-0.9375 	0.5 	-59.4867
1.01562 	-0.9375 	0.5 	-59.7865
1.03125 	-0.9375 	0.5 	-60.1049
1.04688 	-0.9375 	0.5 	-60.5597
1.0625 	-0.9375 	0.5 	-60.7351
1.07812 	-0.9375 	0.5 	-60.9291
1.09375 	-0.9375 	0.5 	-61.2613
1.10938 	-0.9375 	0.5 	-61.585
1.125 	-0.9375 	0.5 	-61.8694
1.14062 	-0.9375 	0.5 	-62.2086
1.15625 	-0.9375 	0.5 	-62.5628
1.17188 	-0.9375 	0.5 	-62.9235
1.1875 	-0.9375 	0.5 	-63.227
1.20312 	-0.9375 	0.5 	-63.4854
1.21875 	-0.9375 	0.5 	-63.8066
1.23438 	-0.9375 	0.5 	-64.1702
1.25 	-0.9375 	0.5 	-64.6429
1.26562 	-0.9375 	0.5 	-64.8829
1.28125 	-0.9375 	0.5 	-65.2347
1.29688 	-0.9375 	0.5 	-65.5241
1.3125 	-0.9375 	0.5 	-65.8522
1.32812 	-0.9375 	0.5 	-66.2098
1.34375 	-0.9375 	0.5 	-66.5676
1.35938 	-0.9375 	0.5 	-66.9261
1.375 	-0.9375 	0.5 	-67.2348
1.39062 	-0.9375 	0.5 	-67.5537
1.40625 	-0.9375 	0.5 	-67.8739
1.42188 	-0.9375 	0.5 	-68.1961
1.4375 	-0.9375 	0.5 	-68.5256
1.45312 	-0.9375 	0.5 	-68.8703
1.46875 	-0.9375 	0.5 	-69.2083
1.48438 	-0.9375 	0.5 	-69.5533
-0.5 	-0.921875 	0.5 	-67.1618
-0.484375 	-0.921875 	0.5 	-66.8942
-0.46875 	-0.921875 	0.5 	-66.5593
-0.453125 	-0.921875 	0.5 	-66.2758
-0.4375 	-0.921875 	0.5 	-66.0232
-0.421875 	-0.921875 	0.5 	-65.7574
-0.40625 	-0.921875 	0.5 	-65.529
-0.390625 	-0.921875 	0.5 	-65.2891
-0.375 	-0.921875 	0.5 	-65.0204
-0.359375 	-0.921875 	0.5 	-64.7546
-0.34375 	-0.921875 	0.5 	-64.5014
-0.328125 	-0.921875 	0.5 	-64.272
-0.3125 	-0.921875 	0.5 	-64.0425
-0.296875 	-0.921875 	0.5 	-63.8044
-0.28125 	-0.921875 	0.5 	-63.5193
-0.265625 	-0.921875 	0.5 	-63.299
-0.25 	-0.921875 	0.5 	-63.0787
-0.234375 	-0.921875 	0.5 	-62.8072
-0.21875 	-0.921875 	0.5 	-62.5675
-0.203125 	-0.921875 	0.5 	-62.3195
-0.1875 	-0.921875 	0.5 	-62.0918
-0.171875 	-0.921875 	0.5 	-61.8888
-0.15625 	-0.921875 	0.5 	-61.6782
-0.140625 	-0.921875 	0.5 	-61.4879
-0.125 	-0.921875 	0.5 	-61.2674
-0.109375 	-0.921875 	0.5 	-61.055
-0.09375 	-0.921875 	0.5 	-60.841
-0.078125 	-0.921875 	0.5 	-60.6467
-0.0625 	-0.921875 	0.5 	-60.4095
-0.046875 	-0.921875 	0.5 	-60.1802
-0.03125 	-0.921875 	0.5 	-59.9752
-0.015625 	-0.921875 	0.5 	-59.7649
0 	-0.921875 	0.5 	-59.5645
0.015625 	-0.921875 	0.5 	-59.365
0.03125 	-0.921875 	0.5 	-59.1632
0.046875 	-0.921875 	0.5 	-58.9447
0.0625 	-0.921875 	0.5 	-58.8041
0.078125 	-0.921875 	0.5 	-58.612
0.09375 	-0.921875 	0.5 	-58.4236
0.109375 	-0.921875 	0.5 	-58.1745
0.125 	-0.921875 	0.5 	-58.0268
0.140625 	-0.921875 	0.5 	-57.8231
0.15625 	-0.921875 	0.5 	-57.6174
0.171875 	-0.921875 	0.5 	-57.4339
0.1875 	-0.921875 	0.5 	-57.2629
0.203125 	-0.921875 	0.5 	-57.1091
0.21875 	-0.921875 	0.5 	-56.9619
0.234375 	-0.921875 	0.5 	-56.7688
0.25 	-0.921875 	0.5 	-56.6062
0.265625 	-0.921875 	0.5 	-56.4423
0.28125 	-0.921875 	0.5 	-56.2924
0.296875 	-0.921875 	0.5 	-56.165
0.3125 	-0.921875 	0.5 	-56.0245
0.328125 	-0.921875 	0.5 	-55.8915
0.34375 	-0.921875 	0.5 	-55.7424
0.359375 	-0.921875 	0.5 	-55.6966
0.375 	-0.921875 	0.5 	-55.5042
0.390625 	-0.921875 	0.5 	-55.3634
0.40625 	-0.921875 	0.5 	-55.2522
0.421875 	-0.921875 	0.5 	-55.2411
0.4375 	-0.921875 	0.5 	-55.1694
0.453125 	-0.921875 	0.5 	-55.1353
0.46875 	-0.921875 	0.5 	-55.0215
0.484375 	-0.921875 	0.5 	-54.9259
0.5 	-0.921875 	0.5 	-54.816
0.515625 	-0.921875 	0.5 	-54.8401
0.53125 	-0.921875 	0.5 	-54.864
0.546875 	-0.921875 	0.5 	-54.8245
0.5625 	-0.921875 	0.5 	-54.7674
0.578125 	-0.921875 	0.5 	-54.8101
0.59375 	-0.921875 	0.5 	-54.7798
0.609375 	-0.921875 	0.5 	-54.8
0.625 	-0.921875 	0.5 	-54.8521
0.640625 	-0.921875 	0.5 	-54.9501
0.65625 	-0.921875 	0.5 	-55.0053
0.671875 	-0.921875 	0.5 	-55.2281
0.6875 	-0.921875 	0.5 	-55.1691
0.703125 	-0.921875 	0.5 	-55.2665
0.71875 	-0.921875 	0.5 	-55.4232
0.734375 	-0.921875 	0.5 	-55.5602
0.75 	-0.921875 	0.5 	-55.6683
0.765625 	-0.921875 	0.5 	-55.8607
0.78125 	-0.921875 	0.5 	-56.0137
0.796875 	-0.921875 	0.5 	-56.2985
0.8125 	-0.921875 	0.5 	-56.4208
0.828125 	-0.921875 	0.5 	-56.5428
0.84375 	-0.921875 	0.5 	-56.6866
0.859375 	-0.921875 	0.5 	-56.9183
0.875 	-0.921875 	0.5 	-57.1288
0.890625 	-0.921875 	0.5 	-57.3985
0.90625 	-0.921875 	0.5 	-57.578
0.921875 	-0.921875 	0.5 	-57.8168
0.9375 	-0.921875 	0.5 	-58.0934
0.953125 	-0.921875 	0.5 	-58.3665
0.96875 	-0.921875 	0.5 	-58.6318
0.984375 	-0.921875 	0.5 	-58.8843
1 	-0.921875 	0.5 	-59.1638
1.01562 	-0.921875 	0.5 	-59.5129
1.03125 	-0.921875 	0.5 	-59.8072
1.04688 	-0.921875 	0.5 	-60.091
1.0625 	-0.921875 	0.5 	-60.4031
1.07812 	-0.921875 	0.5 	-60.726
1.09375 	-0.921875 	0.5 	-61.0315
1.10938 	-0.921875 	0.5 	-61.3439
1.125 	-0.921875 	0.5 	-61.6631
1.14062 	-0.921875 	0.5 	-61.9713
1.15625 	-0.921875 	0.5 	-62.2371
1.17188 	-0.921875 	0.5 	-62.5879
1.1875 	-0.921875 	0.5 	-62.9714
1.20312 	-0.921875 	0.5 	-63.2824
1.21875 	-0.921875 	0.5 	-63.6074
1.23438 	-0.921875 	0.5 	-64.026
1.25 	-0.921875 	0.5 	-64.4352
1.26562 	-0.921875 	0.5 	-64.7371
1.28125 	-0.921875 	0.5 	-65.0956
1.29688 	-0.921875 	0.5 	-65.4087
1.3125 	-0.921875 	0.5 	-65.7246
1.32812 	-0.921875 	0.5 	-66.0798
1.34375 	-0.921875 	0.5 	-66.4303
1.35938 	-0.921875 	0.5 	-66.7932
1.375 	-0.921875 	0.5 	-67.1476
1.39062 	-0.921875 	0.5 	-67.4757
1.40625 	-0.921875 	0.5 	-67.7987
1.42188 	-0.921875 	0.5 	-68.1057
1.4375 	-0.921875 	0.5 	-68.4888
1.45312 	-0.921875 	0.5 	-68.7964
1.46875 	-0.921875 	0.5 	-69.1891
1.48438 	-0.921875 	0.5 	-69.503
-0.5 	-0.90625 	0.5 	-67.0218
-0.484375 	-0.90625 	0.5 	-66.7592
-0.46875 	-0.90625 	0.5 	-66.4577
-0.453125 	-0.90625 	0.5 	-66.1212
-0.4375 	-0.90625 	0.5 	-65.8619
-0.421875 	-0.90625 	0.5 	-65.6238
-0.40625 	-0.90625 	0.5 	-65.4061
-0.390625 	-0.90625 	0.5 	-65.1304
-0.375 	-0.90625 	0.5 	-64.9094
-0.359375 	-0.90625 	0.5 	-64.6298
-0.34375 	-0.90625 	0.5 	-64.3441
-0.328125 	-0.90625 	0.5 	-64.0961
-0.3125 	-0.90625 	0.5 	-63.8632
-0.296875 	-0.90625 	0.5 	-63.5713
-0.28125 	-0.90625 	0.5 	-63.343
-0.265625 	-0.90625 	0.5 	-63.0563
-0.25 	-0.90625 	0.5 	-62.8964
-0.234375 	-0.90625 	0.5 	-62.6675
-0.21875 	-0.90625 	0.5 	-62.3992
-0.203125 	-0.90625 	0.5 	-62.1581
-0.1875 	-0.90625 	0.5 	-61.9219
-0.171875 	-0.90625 	0.5 	-61.6686
-0.15625 	-0.90625 	0.5 	-61.4751
-0.140625 	-0.90625 	0.5 	-61.2566
-0.125 	-0.90625 	0.5 	-61.0547
-0.109375 	-0.90625 	0.5 	-60.8335
-0.09375 	-0.90625 	0.5 	-60.5735
-0.078125 	-0.90625 	0.5 	-60.3787
-0.0625 	-0.90625 	0.5 	-60.1475
-0.046875 	-0.90625 	0.5 	-59.9347
-0.03125 	-0.90625 	0.5 	-59.6972
-0.015625 	-0.90625 	0.5 	-59.5004
0 	-0.90625 	0.5 	-59.2987
0.015625 	-0.90625 	0.5 	-59.141
0.03125 	-0.90625 	0.5 	-58.9154
0.046875 	-0.90625 	0.5 	-58.6975
0.0625 	-0.90625 	0.5 	-58.477
0.078125 	-0.90625 	0.5 	-58.3142
0.09375 	-0.90625 	0.5 	-58.1557
0.109375 	-0.90625 	0.5 	-57.9848
0.125 	-0.90625 	0.5 	-57.7491
0.140625 	-0.90625 	0.5 	-57.517
0.15625 	-0.90625 	0.5 	-57.3052
0.171875 	-0.90625 	0.5 	-57.1215
0.1875 	-0.90625 	0.5 	-56.966
0.203125 	-0.90625 	0.5 	-56.7878
0.21875 	-0.90625 	0.5 	-56.6296
0.234375 	-0.90625 	0.5 	-56.4536
0.25 	-0.90625 	0.5 	-56.2698
0.265625 	-0.90625 	0.5 	-56.1035
0.28125 	-0.90625 	0.5 	-55.9585
0.296875 	-0.90625 	0.5 	-55.806
0.3125 	-0.90625 	0.5 	-55.6581
0.328125 	-0.90625 	0.5 	-55.5075
0.34375 	-0.90625 	0.5 	-55.3838
0.359375 	-0.90625 	0.5 	-55.2488
0.375 	-0.90625 	0.5 	-55.0857
0.390625 	-0.90625 	0.5 	-54.9674
0.40625 	-0.90625 	0.5 	-54.8745
0.421875 	-0.90625 	0.5 	-54.844
0.4375 	-0.90625 	0.5 	-54.7454
0.453125 	-0.90625 	0.5 	-54.6897
0.46875 	-0.90625 	0.5 	-54.5776
0.484375 	-0.90625 	0.5 	-54.507
0.5 	-0.90625 	0.5 	-54.4544
0.515625 	-0.90625 	0.5 	-54.4244
0.53125 	-0.90625 	0.5 	-54.405
0.546875 	-0.90625 	0.5 	-54.3827
0.5625 	-0.90625 	0.5 	-54.393
0.578125 	-0.90625 	0.5 	-54.4167
0.59375 	-0.90625 	0.5 	-54.3919
0.609375 	-0.90625 	0.5 	-54.3776
0.625 	-0.90625 	0.5 	-54.4199
0.640625 	-0.90625 	0.5 	-54.4971
0.65625 	-0.90625 	0.5 	-54.6069
0.671875 	-0.90625 	0.5 	-54.5737
0.6875 	-0.90625 	0.5 	-54.686
0.703125 	-0.90625 	0.5 	-54.7889
0.71875 	-0.90625 	0.5 	-54.9988
0.734375 	-0.90625 	0.5 	-55.1256
0.75 	-0.90625 	0.5 	-55.2463
0.765625 	-0.90625 	0.5 	-55.3957
0.78125 	-0.90625 	0.5 	-55.5737
0.796875 	-0.90625 	0.5 	-55.8196
0.8125 	-0.90625 	0.5 	-56.0241
0.828125 	-0.90625 	0.5 	-56.1328
0.84375 	-0.90625 	0.5 	-56.325
0.859375 	-0.90625 	0.5 	-56.4962
0.875 	-0.90625 	0.5 	-56.7769
0.890625 	-0.90625 	0.5 	-56.9977
0.90625 	-0.90625 	0.5 	-57.297
0.921875 	-0.90625 	0.5 	-57.4645
0.9375 	-0.90625 	0.5 	-57.7498
0.953125 	-0.90625 	0.5 	-58.0354
0.96875 	-0.90625 	0.5 	-58.2917
0.984375 	-0.90625 	0.5 	-58.5271
1 	-0.90625 	0.5 	-58.821
1.01562 	-0.90625 	0.5 	-59.1502
1.03125 	-0.90625 	0.5 	-59.4518
1.04688 	-0.90625 	0.5 	-59.763
1.0625 	-0.90625 	0.5 	-60.1476
1.07812 	-0.90625 	0.5 	-60.4441
1.09375 	-0.90625 	0.5 	-60.7548
1.10938 	-0.90625 	0.5 	-61.032
1.125 	-0.90625 	0.5 	-61.4208
1.14062 	-0.90625 	0.5 	-61.7301
1.15625 	-0.90625 	0.5 	-62.0177
1.17188 	-0.90625 	0.5 	-62.3749
1.1875 	-0.90625 	0.5 	-62.7702
1.20312 	-0.90625 	0.5 	-63.1478
1.21875 	-0.90625 	0.5 	-63.4508
1.23438 	-0.90625 	0.5 	-63.8537
1.25 	-0.90625 	0.5 	-64.2328
1.26562 	-0.90625 	0.5 	-64.5801
1.28125 	-0.90625 	0.5 	-64.8694
1.29688 	-0.90625 	0.5 	-65.162
1.3125 	-0.90625 	0.5 	-65.5694
1.32812 	-0.90625 	0.5 	-65.929
1.34375 	-0.90625 	0.5 	-66.2846
1.35938 	-0.90625 	0.5 	-66.6425
1.375 	-0.90625 	0.5 	-67.0166
1.39062 	-0.90625 	0.5 	-67.3796
1.40625 	-0.90625 	0.5 	-67.7007
1.42188 	-0.90625 	0.5 	-68.0532
1.4375 	-0.90625 	0.5 	-68.4521
1.45312 	-0.90625 	0.5 	-68.724
1.46875 	-0.90625 	0.5 	-69.0802
1.48438 	-0.90625 	0.5 	-69.3893
-0.5 	-0.890625 	0.5 	-66.8901
-0.484375 	-0.890625 	0.5 	-66.5949
-0.46875 	-0.890625 	0.5 	-66.2898
-0.453125 	-0.890625 	0.5 	-65.97
-0.4375 	-0.890625 	0.5 	-65.7485
-0.421875 	-0.890625 	0.5 	-65.5577
-0.40625 	-0.890625 	0.5 	-65.2771
-0.390625 	-0.890625 	0.5 	-64.9815
-0.375 	-0.890625 	0.5 	-64.7131
-0.359375 	-0.890625 	0.5 	-64.4524
-0.34375 	-0.890625 	0.5 	-64.1844
-0.328125 	-0.890625 	0.5 	-63.9148
-0.3125 	-0.890625 	0.5 	-63.6489
-0.296875 	-0.890625 	0.5 	-63.3837
-0.28125 	-0.890625 	0.5 	-63.1289
-0.265625 	-0.890625 	0.5 	-62.9118
-0.25 	-0.890625 	0.5 	-62.6926
-0.234375 	-0.890625 	0.5 	-62.4639
-0.21875 	-0.890625 	0.5 	-62.2379
-0.203125 	-0.890625 	0.5 	-61.9313
-0.1875 	-0.890625 	0.5 	-61.6354
-0.171875 	-0.890625 	0.5 	-61.4543
-0.15625 	-0.890625 	0.5 	-61.2363
-0.140625 	-0.890625 	0.5 	-61.1286
-0.125 	-0.890625 	0.5 	-60.8415
-0.109375 	-0.890625 	0.5 	-60.6153