-0.5 	-1 	0.5 	39.594 	0.12738 	2.86136e-20
-0.484375 	-1 	0.5 	39.5921 	0.123417 	-6.06786e-20
-0.46875 	-1 	0.5 	39.5901 	0.119357 	5.00859e-21
-0.453125 	-1 	0.5 	39.5884 	0.11533 	-1.97168e-19
-0.4375 	-1 	0.5 	39.5861 	0.11189 	9.6991e-19
-0.421875 	-1 	0.5 	39.5846 	0.107262 	3.5793e-19
-0.40625 	-1 	0.5 	39.5831 	0.102486 	1.70535e-18
-0.390625 	-1 	0.5 	39.5815 	0.0983533 	-7.97426e-19
-0.375 	-1 	0.5 	39.5802 	0.0939818 	-9.38472e-19
-0.359375 	-1 	0.5 	39.5793 	0.0895981 	1.35409e-18
-0.34375 	-1 	0.5 	39.5787 	0.0841007 	2.0284e-19
-0.328125 	-1 	0.5 	39.5779 	0.0794545 	-5.92571e-19
-0.3125 	-1 	0.5 	39.5775 	0.0749867 	9.12214e-19
-0.296875 	-1 	0.5 	39.5771 	0.0697404 	4.07911e-19
-0.28125 	-1 	0.5 	39.5765 	0.0650498 	9.92364e-19
-0.265625 	-1 	0.5 	39.5761 	0.060828 	6.01334e-19
-0.25 	-1 	0.5 	39.5758 	0.0570786 	8.74832e-19
-0.234375 	-1 	0.5 	39.5755 	0.0529211 	2.53754e-19
-0.21875 	-1 	0.5 	39.5753 	0.0487159 	1.53231e-18
-0.203125 	-1 	0.5 	39.5761 	0.0445515 	-8.17409e-19
-0.1875 	-1 	0.5 	39.5765 	0.0401247 	-3.53435e-18
-0.171875 	-1 	0.5 	39.5777 	0.0356882 	-1.00422e-19
-0.15625 	-1 	0.5 	39.5781 	0.0321694 	7.59686e-19
-0.140625 	-1 	0.5 	39.5787 	0.0279904 	1.05715e-19
-0.125 	-1 	0.5 	39.5796 	0.0235237 	2.84371e-19
-0.109375 	-1 	0.5 	39.58 	0.019879 	-2.51201e-19
-0.09375 	-1 	0.5 	39.5815 	0.0163837 	5.60441e-20
-0.078125 	-1 	0.5 	39.5824 	0.0121519 	2.37993e-19
-0.0625 	-1 	0.5 	39.5837 	0.00818491 	8.76798e-19
-0.046875 	-1 	0.5 	39.5854 	0.00469527 	1.6867e-18
-0.03125 	-1 	0.5 	39.5874 	0.00126035 	1.22707e-18
-0.015625 	-1 	0.5 	39.5884 	-0.00184269 	5.35628e-19
0 	-1 	0.5 	39.5892 	-0.00506324 	3.05155e-19
0.015625 	-1 	0.5 	39.59 	-0.00819495 	7.66589e-20
0.03125 	-1 	0.5 	39.5919 	-0.0112267 	9.64185e-19
0.046875 	-1 	0.5 	39.5935 	-0.0139283 	-1.04128e-19
0.0625 	-1 	0.5 	39.5955 	-0.016919 	-9.02977e-19
0.078125 	-1 	0.5 	39.5972 	-0.0195786 	-2.28905e-19
0.09375 	-1 	0.5 	39.5989 	-0.0220809 	-4.98102e-19
0.109375 	-1 	0.5 	39.6005 	-0.0245808 	-8.13792e-19
0.125 	-1 	0.5 	39.602 	-0.0268431 	-1.06323e-18
0.140625 	-1 	0.5 	39.6037 	-0.0289242 	-3.785e-19
0.15625 	-1 	0.5 	39.6055 	-0.0309761 	-1.37357e-19
0.171875 	-1 	0.5 	39.6072 	-0.0326975 	-7.25885e-19
0.1875 	-1 	0.5 	39.6086 	-0.0347796 	-1.35511e-19
0.203125 	-1 	0.5 	39.6101 	-0.0368264 	-2.17936e-20
0.21875 	-1 	0.5 	39.6117 	-0.0386018 	1.7693e-19
0.234375 	-1 	0.5 	39.6133 	-0.0401834 	2.26669e-19
0.25 	-1 	0.5 	39.6144 	-0.0416107 	-1.25423e-19
0.265625 	-1 	0.5 	39.6158 	-0.0432191 	-8.27971e-19
0.28125 	-1 	0.5 	39.6173 	-0.0447943 	-2.1331e-18
0.296875 	-1 	0.5 	39.6186 	-0.0460609 	5.05922e-19
0.3125 	-1 	0.5 	39.6196 	-0.0474514 	-2.84322e-19
0.328125 	-1 	0.5 	39.6204 	-0.0489054 	-5.72916e-19
0.34375 	-1 	0.5 	39.6214 	-0.0503219 	6.54033e-19
0.359375 	-1 	0.5 	39.6223 	-0.0514428 	1.0549e-20
0.375 	-1 	0.5 	39.623 	-0.0525005 	9.45031e-22
0.390625 	-1 	0.5 	39.6237 	-0.0535723 	-2.64988e-20
0.40625 	-1 	0.5 	39.6243 	-0.0549373 	-2.81355e-19
0.421875 	-1 	0.5 	39.6248 	-0.056006 	1.88454e-18
0.4375 	-1 	0.5 	39.6252 	-0.0571063 	1.22059e-18
0.453125 	-1 	0.5 	39.6255 	-0.0585084 	-8.40734e-19
0.46875 	-1 	0.5 	39.6261 	-0.0597882 	9.67053e-19
0.484375 	-1 	0.5 	39.6261 	-0.0612505 	1.38896e-18
0.5 	-1 	0.5 	39.6262 	-0.062759 	2.43231e-19
0.515625 	-1 	0.5 	39.6264 	-0.0638722 	9.18571e-19
0.53125 	-1 	0.5 	39.6266 	-0.0652597 	-9.7416e-20
0.546875 	-1 	0.5 	39.6265 	-0.0667622 	-7.18157e-19
0.5625 	-1 	0.5 	39.6265 	-0.0684281 	-1.10077e-18
0.578125 	-1 	0.5 	39.6261 	-0.0700776 	-5.93392e-19
0.59375 	-1 	0.5 	39.626 	-0.0717085 	-6.97203e-19
0.609375 	-1 	0.5 	39.6262 	-0.0733515 	-6.20127e-19
0.625 	-1 	0.5 	39.6262 	-0.0750262 	-3.05449e-19
0.640625 	-1 	0.5 	39.6258 	-0.076829 	-1.61712e-18
0.65625 	-1 	0.5 	39.6255 	-0.0787902 	1.17986e-19
0.671875 	-1 	0.5 	39.6254 	-0.0809809 	1.33579e-18
0.6875 	-1 	0.5 	39.6253 	-0.0829429 	9.21298e-20
0.703125 	-1 	0.5 	39.6251 	-0.0851636 	1.9457e-19
0.71875 	-1 	0.5 	39.6247 	-0.087085 	1.20104e-18
0.734375 	-1 	0.5 	39.6247 	-0.0896479 	-1.42595e-20
0.75 	-1 	0.5 	39.6246 	-0.0920419 	-8.93395e-19
0.765625 	-1 	0.5 	39.6246 	-0.0948571 	-3.64196e-19
0.78125 	-1 	0.5 	39.6247 	-0.0973341 	8.81344e-20
0.796875 	-1 	0.5 	39.6247 	-0.0997472 	1.32369e-19
0.8125 	-1 	0.5 	39.6247 	-0.102362 	-2.60753e-18
0.828125 	-1 	0.5 	39.6248 	-0.10524 	-2.45246e-18
0.84375 	-1 	0.5 	39.6249 	-0.108318 	-6.57502e-19
0.859375 	-1 	0.5 	39.625 	-0.111488 	-4.28772e-19
0.875 	-1 	0.5 	39.6253 	-0.114769 	-6.64022e-19
0.890625 	-1 	0.5 	39.6256 	-0.118244 	-1.03818e-18
0.90625 	-1 	0.5 	39.6257 	-0.120533 	-2.49918e-19
0.921875 	-1 	0.5 	39.6264 	-0.123695 	-1.70031e-19
0.9375 	-1 	0.5 	39.627 	-0.127032 	-2.67958e-19
0.953125 	-1 	0.5 	39.6276 	-0.13039 	-4.10181e-19
0.96875 	-1 	0.5 	39.6282 	-0.133725 	-6.50773e-19
0.984375 	-1 	0.5 	39.629 	-0.137061 	-4.66576e-19
1 	-1 	0.5 	39.6299 	-0.140293 	1.43164e-19
1.01562 	-1 	0.5 	39.6308 	-0.143524 	7.46391e-19
1.03125 	-1 	0.5 	39.6315 	-0.146582 	3.179e-19
1.04688 	-1 	0.5 	39.6328 	-0.149992 	3.38774e-19
1.0625 	-1 	0.5 	39.6348 	-0.152757 	3.40334e-20
1.07812 	-1 	0.5 	39.6364 	-0.156848 	-6.66264e-20
1.09375 	-1 	0.5 	39.6381 	-0.160673 	-6.50827e-20
1.10938 	-1 	0.5 	39.6393 	-0.163468 	1.57645e-19
1.125 	-1 	0.5 	39.6405 	-0.166318 	3.07721e-19
1.14062 	-1 	0.5 	39.6422 	-0.169695 	4.62374e-19
1.15625 	-1 	0.5 	39.6443 	-0.172877 	8.26878e-19
1.17188 	-1 	0.5 	39.6463 	-0.176329 	3.88701e-19
1.1875 	-1 	0.5 	39.6485 	-0.179828 	-1.93438e-18
1.20312 	-1 	0.5 	39.6514 	-0.183862 	-9.06791e-19
1.21875 	-1 	0.5 	39.6531 	-0.18677 	3.46347e-18
1.23438 	-1 	0.5 	39.6558 	-0.190441 	1.77269e-18
1.25 	-1 	0.5 	39.6576 	-0.191164 	-1.63324e-18
1.26562 	-1 	0.5 	39.6604 	-0.195604 	-7.75125e-19
1.28125 	-1 	0.5 	39.6627 	-0.199029 	-9.60837e-19
1.29688 	-1 	0.5 	39.6658 	-0.201436 	-4.96771e-19
1.3125 	-1 	0.5 	39.6682 	-0.204259 	-4.60838e-19
1.32812 	-1 	0.5 	39.671 	-0.207044 	-1.8137e-19
1.34375 	-1 	0.5 	39.6736 	-0.210463 	-3.33142e-19
1.35938 	-1 	0.5 	39.6762 	-0.213081 	-1.20802e-18
1.375 	-1 	0.5 	39.6796 	-0.214029 	3.07855e-18
1.39062 	-1 	0.5 	39.6827 	-0.21745 	3.11003e-18
1.40625 	-1 	0.5 	39.6857 	-0.22136 	2.12164e-18
1.42188 	-1 	0.5 	39.689 	-0.223182 	1.43383e-18
1.4375 	-1 	0.5 	39.6923 	-0.225024 	2.80035e-19
1.45312 	-1 	0.5 	39.6957 	-0.226736 	-5.78074e-19
1.46875 	-1 	0.5 	39.6981 	-0.22865 	-1.68721e-19
1.48438 	-1 	0.5 	39.7011 	-0.230732 	-3.24124e-20
-0.5 	-0.984375 	0.5 	39.5893 	0.129633 	-1.56994e-19
-0.484375 	-0.984375 	0.5 	39.5867 	0.126054 	1.97407e-20
-0.46875 	-0.984375 	0.5 	39.5848 	0.121472 	1.2958e-19
-0.453125 	-0.984375 	0.5 	39.5828 	0.117056 	2.11803e-19
-0.4375 	-0.984375 	0.5 	39.581 	0.113005 	3.0833e-19
-0.421875 	-0.984375 	0.5 	39.5794 	0.108101 	2.40258e-18
-0.40625 	-0.984375 	0.5 	39.5778 	0.103451 	3.15167e-18
-0.390625 	-0.984375 	0.5 	39.5765 	0.0994445 	4.91831e-19
-0.375 	-0.984375 	0.5 	39.5751 	0.0951284 	-2.19415e-19
-0.359375 	-0.984375 	0.5 	39.5742 	0.0904178 	1.06316e-18
-0.34375 	-0.984375 	0.5 	39.5736 	0.0850437 	2.93421e-19
-0.328125 	-0.984375 	0.5 	39.5727 	0.0798933 	-3.4961e-20
-0.3125 	-0.984375 	0.5 	39.5724 	0.0755588 	-5.29288e-19
-0.296875 	-0.984375 	0.5 	39.572 	0.0713014 	-1.1225e-18
-0.28125 	-0.984375 	0.5 	39.5709 	0.0660088 	6.12567e-19
-0.265625 	-0.984375 	0.5 	39.5707 	0.0613246 	2.10915e-18
-0.25 	-0.984375 	0.5 	39.5704 	0.0568941 	8.89509e-19
-0.234375 	-0.984375 	0.5 	39.57 	0.0525797 	-7.57259e-20
-0.21875 	-0.984375 	0.5 	39.5701 	0.0484515 	-7.36451e-19
-0.203125 	-0.984375 	0.5 	39.5706 	0.0440183 	-2.41496e-18
-0.1875 	-0.984375 	0.5 	39.5713 	0.0395777 	-2.89064e-18
-0.171875 	-0.984375 	0.5 	39.5722 	0.0351281 	-1.90797e-18
-0.15625 	-0.984375 	0.5 	39.5729 	0.0311381 	-3.67585e-20
-0.140625 	-0.984375 	0.5 	39.5738 	0.0266935 	3.89175e-20
-0.125 	-0.984375 	0.5 	39.5749 	0.0220676 	9.56604e-19
-0.109375 	-0.984375 	0.5 	39.5751 	0.0186474 	8.85072e-20
-0.09375 	-0.984375 	0.5 	39.5761 	0.0154833 	-2.7948e-19
-0.078125 	-0.984375 	0.5 	39.5769 	0.0110377 	-3.48799e-19
-0.0625 	-0.984375 	0.5 	39.5791 	0.00658219 	-1.94656e-18
-0.046875 	-0.984375 	0.5 	39.5805 	0.0032215 	3.16897e-18
-0.03125 	-0.984375 	0.5 	39.5827 	-0.000139855 	1.00244e-18
-0.015625 	-0.984375 	0.5 	39.5826 	-0.00288105 	7.43741e-20
0 	-0.984375 	0.5 	39.5841 	-0.00619197 	9.89386e-20
0.015625 	-0.984375 	0.5 	39.5858 	-0.00960638 	1.45216e-19
0.03125 	-0.984375 	0.5 	39.5879 	-0.012686 	-7.49014e-19
0.046875 	-0.984375 	0.5 	39.5899 	-0.0156648 	-2.29377e-18
0.0625 	-0.984375 	0.5 	39.5921 	-0.0183618 	-9.17672e-19
0.078125 	-0.984375 	0.5 	39.5939 	-0.0213288 	-2.42219e-19
0.09375 	-0.984375 	0.5 	39.5953 	-0.0237935 	-1.49866e-19
0.109375 	-0.984375 	0.5 	39.5972 	-0.0262994 	-4.26628e-19
0.125 	-0.984375 	0.5 	39.599 	-0.0286557 	-4.35272e-19
0.140625 	-0.984375 	0.5 	39.6009 	-0.0306257 	-2.03315e-19
0.15625 	-0.984375 	0.5 	39.6027 	-0.0327259 	-4.04818e-20
0.171875 	-0.984375 	0.5 	39.6044 	-0.0342103 	-9.04844e-19
0.1875 	-0.984375 	0.5 	39.606 	-0.0363759 	-3.8988e-19
0.203125 	-0.984375 	0.5 	39.6077 	-0.0382768 	-1.13145e-19
0.21875 	-0.984375 	0.5 	39.6092 	-0.0400174 	7.17768e-20
0.234375 	-0.984375 	0.5 	39.6107 	-0.0417136 	1.66834e-19
0.25 	-0.984375 	0.5 	39.6122 	-0.0432493 	-1.4716e-20
0.265625 	-0.984375 	0.5 	39.6136 	-0.0445664 	-5.16673e-19
0.28125 	-0.984375 	0.5 	39.615 	-0.0458454 	-3.47251e-19
0.296875 	-0.984375 	0.5 	39.6165 	-0.0470269 	-4.31881e-19
0.3125 	-0.984375 	0.5 	39.6175 	-0.048418 	-2.13173e-19
0.328125 	-0.984375 	0.5 	39.6186 	-0.0498164 	1.65042e-20
0.34375 	-0.984375 	0.5 	39.6195 	-0.0511737 	7.71979e-20
0.359375 	-0.984375 	0.5 	39.6203 	-0.0522457 	9.06428e-20
0.375 	-0.984375 	0.5 	39.621 	-0.0533086 	7.45097e-20
0.390625 	-0.984375 	0.5 	39.6217 	-0.0543714 	5.83766e-20
0.40625 	-0.984375 	0.5 	39.6223 	-0.0554079 	1.74768e-19
0.421875 	-0.984375 	0.5 	39.6227 	-0.0564889 	1.9987e-19
0.4375 	-0.984375 	0.5 	39.6231 	-0.0575748 	4.22658e-19
0.453125 	-0.984375 	0.5 	39.6236 	-0.0586617 	6.76005e-19
0.46875 	-0.984375 	0.5 	39.6239 	-0.0600032 	-1.3219e-19
0.484375 	-0.984375 	0.5 	39.6241 	-0.061332 	-7.41062e-19
0.5 	-0.984375 	0.5 	39.6243 	-0.0626022 	2.2808e-19
0.515625 	-0.984375 	0.5 	39.6246 	-0.0638931 	6.22049e-19
0.53125 	-0.984375 	0.5 	39.6246 	-0.0652001 	3.35534e-20
0.546875 	-0.984375 	0.5 	39.6242 	-0.0666006 	-3.086e-19
0.5625 	-0.984375 	0.5 	39.6241 	-0.0682582 	-3.73142e-19
0.578125 	-0.984375 	0.5 	39.6241 	-0.069812 	-2.2468e-19
0.59375 	-0.984375 	0.5 	39.624 	-0.0714433 	-1.0157e-18
0.609375 	-0.984375 	0.5 	39.6236 	-0.073115 	-7.71917e-19
0.625 	-0.984375 	0.5 	39.6236 	-0.0747741 	-5.5698e-19
0.640625 	-0.984375 	0.5 	39.6232 	-0.076629 	-1.32755e-18
0.65625 	-0.984375 	0.5 	39.6229 	-0.0785571 	-7.79689e-19
0.671875 	-0.984375 	0.5 	39.6225 	-0.08052 	1.91126e-19
0.6875 	-0.984375 	0.5 	39.6224 	-0.0826751 	5.41409e-20
0.703125 	-0.984375 	0.5 	39.6222 	-0.0848706 	9.31252e-20
0.71875 	-0.984375 	0.5 	39.6219 	-0.0870444 	4.27451e-19
0.734375 	-0.984375 	0.5 	39.6218 	-0.0894714 	-1.0316e-19
0.75 	-0.984375 	0.5 	39.6215 	-0.0921063 	-1.65004e-19
0.765625 	-0.984375 	0.5 	39.6214 	-0.0942345 	-5.81973e-19
0.78125 	-0.984375 	0.5 	39.6215 	-0.0977163 	1.54618e-18
0.796875 	-0.984375 	0.5 	39.6213 	-0.0996674 	3.67681e-19
0.8125 	-0.984375 	0.5 	39.6211 	-0.102351 	-1.68854e-18
0.828125 	-0.984375 	0.5 	39.6212 	-0.105382 	-3.03753e-19
0.84375 	-0.984375 	0.5 	39.6213 	-0.10821 	-9.03846e-19
0.859375 	-0.984375 	0.5 	39.6212 	-0.111738 	-1.79384e-19
0.875 	-0.984375 	0.5 	39.6213 	-0.1153 	-5.91669e-20
0.890625 	-0.984375 	0.5 	39.6215 	-0.118163 	-1.22431e-19
0.90625 	-0.984375 	0.5 	39.6216 	-0.120995 	-2.20635e-19
0.921875 	-0.984375 	0.5 	39.6222 	-0.124393 	-6.93331e-19
0.9375 	-0.984375 	0.5 	39.6231 	-0.127707 	-1.73701e-18
0.953125 	-0.984375 	0.5 	39.6237 	-0.130984 	-1.78085e-18
0.96875 	-0.984375 	0.5 	39.6242 	-0.134174 	-1.33978e-19
0.984375 	-0.984375 	0.5 	39.625 	-0.137553 	-8.09613e-20
1 	-0.984375 	0.5 	39.6258 	-0.14122 	-2.00633e-18
1.01562 	-0.984375 	0.5 	39.6266 	-0.144521 	-1.25739e-18
1.03125 	-0.984375 	0.5 	39.6274 	-0.147802 	-3.59241e-19
1.04688 	-0.984375 	0.5 	39.6286 	-0.151208 	1.76749e-19
1.0625 	-0.984375 	0.5 	39.6304 	-0.154737 	2.00507e-20
1.07812 	-0.984375 	0.5 	39.6322 	-0.158214 	-1.35142e-19
1.09375 	-0.984375 	0.5 	39.6337 	-0.161614 	-2.51848e-19
1.10938 	-0.984375 	0.5 	39.6351 	-0.164861 	-5.92788e-19
1.125 	-0.984375 	0.5 	39.6365 	-0.168186 	-8.3887e-20
1.14062 	-0.984375 	0.5 	39.6384 	-0.171922 	7.87553e-19
1.15625 	-0.984375 	0.5 	39.6404 	-0.175157 	1.4833e-19
1.17188 	-0.984375 	0.5 	39.6424 	-0.178486 	7.65081e-20
1.1875 	-0.984375 	0.5 	39.6448 	-0.18186 	-2.79572e-18
1.20312 	-0.984375 	0.5 	39.6475 	-0.185615 	-3.31881e-18
1.21875 	-0.984375 	0.5 	39.6504 	-0.18993 	5.04526e-19
1.23438 	-0.984375 	0.5 	39.6526 	-0.192997 	1.86892e-19
1.25 	-0.984375 	0.5 	39.6548 	-0.195155 	-7.95592e-19
1.26562 	-0.984375 	0.5 	39.6574 	-0.199006 	-5.45966e-19
1.28125 	-0.984375 	0.5 	39.6596 	-0.201335 	-7.97627e-19
1.29688 	-0.984375 	0.5 	39.6627 	-0.203699 	-1.73314e-19
1.3125 	-0.984375 	0.5 	39.6647 	-0.20681 	-5.19374e-19
1.32812 	-0.984375 	0.5 	39.6678 	-0.209201 	8.67858e-21
1.34375 	-0.984375 	0.5 	39.6704 	-0.212756 	1.70376e-19
1.35938 	-0.984375 	0.5 	39.6732 	-0.216098 	2.86e-19
1.375 	-0.984375 	0.5 	39.6764 	-0.21869 	4.33461e-19
1.39062 	-0.984375 	0.5 	39.6797 	-0.221281 	5.80922e-19
1.40625 	-0.984375 	0.5 	39.6827 	-0.224867 	2.52421e-18
1.42188 	-0.984375 	0.5 	39.6863 	-0.226777 	-3.72226e-19
1.4375 	-0.984375 	0.5 	39.6897 	-0.228502 	-2.19349e-18
1.45312 	-0.984375 	0.5 	39.693 	-0.23018 	-3.68536e-19
1.46875 	-0.984375 	0.5 	39.6959 	-0.232118 	3.95473e-19
1.48438 	-0.984375 	0.5 	39.6984 	-0.234389 	-1.91481e-19
-0.5 	-0.96875 	0.5 	39.5847 	0.131773 	-3.78339e-19
-0.484375 	-0.96875 	0.5 	39.5819 	0.128085 	-2.54702e-19
-0.46875 	-0.96875 	0.5 	39.5799 	0.123602 	-1.3332e-19
-0.453125 	-0.96875 	0.5 	39.5776 	0.118958 	3.02371e-20
-0.4375 	-0.96875 	0.5 	39.5757 	0.114555 	-7.51009e-20
-0.421875 	-0.96875 	0.5 	39.574 	0.109663 	-1.27077e-18
-0.40625 	-0.96875 	0.5 	39.5726 	0.105202 	-7.22729e-19
-0.390625 	-0.96875 	0.5 	39.5712 	0.10074 	-1.74693e-19
-0.375 	-0.96875 	0.5 	39.5699 	0.0961719 	5.01903e-20
-0.359375 	-0.96875 	0.5 	39.5691 	0.091524 	2.39989e-20
-0.34375 	-0.96875 	0.5 	39.5682 	0.0868761 	-2.19253e-21
-0.328125 	-0.96875 	0.5 	39.5669 	0.0810472 	-7.67577e-20
-0.3125 	-0.96875 	0.5 	39.5665 	0.0763327 	3.15279e-20
-0.296875 	-0.96875 	0.5 	39.566 	0.0715779 	2.12741e-19
-0.28125 	-0.96875 	0.5 	39.5654 	0.0670618 	1.96729e-19
-0.265625 	-0.96875 	0.5 	39.5651 	0.0623496 	1.02259e-18
-0.25 	-0.96875 	0.5 	39.5647 	0.0578958 	-1.07113e-20
-0.234375 	-0.96875 	0.5 	39.5643 	0.0528821 	-1.30216e-18
-0.21875 	-0.96875 	0.5 	39.5644 	0.047907 	-3.78264e-19
-0.203125 	-0.96875 	0.5 	39.5651 	0.0434352 	2.0752e-19
-0.1875 	-0.96875 	0.5 	39.566 	0.0389972 	3.23448e-20
-0.171875 	-0.96875 	0.5 	39.5668 	0.0345593 	-1.42831e-19
-0.15625 	-0.96875 	0.5 	39.5678 	0.0299679 	-6.05035e-19
-0.140625 	-0.96875 	0.5 	39.5684 	0.0259785 	-6.96378e-19
-0.125 	-0.96875 	0.5 	39.5691 	0.0221175 	-6.01597e-19
-0.109375 	-0.96875 	0.5 	39.5698 	0.0179934 	-4.27182e-19
-0.09375 	-0.96875 	0.5 	39.5704 	0.0141836 	-6.97004e-19
-0.078125 	-0.96875 	0.5 	39.5723 	0.00960248 	-2.99318e-18
-0.0625 	-0.96875 	0.5 	39.5744 	0.00535444 	-3.62714e-18
-0.046875 	-0.96875 	0.5 	39.5762 	0.0017784 	-1.1395e-18
-0.03125 	-0.96875 	0.5 	39.578 	-0.00154006 	7.77804e-19
-0.015625 	-0.96875 	0.5 	39.5788 	-0.00460886 	3.83343e-19
0 	-0.96875 	0.5 	39.5805 	-0.0080563 	2.0069e-19
0.015625 	-0.96875 	0.5 	39.5821 	-0.0115855 	5.49484e-20
0.03125 	-0.96875 	0.5 	39.5846 	-0.0139487 	5.61091e-19
0.046875 	-0.96875 	0.5 	39.587 	-0.0175522 	-9.98408e-19
0.0625 	-0.96875 	0.5 	39.5888 	-0.0202159 	-7.54934e-19
0.078125 	-0.96875 	0.5 	39.5905 	-0.0230114 	-2.55644e-19
0.09375 	-0.96875 	0.5 	39.5923 	-0.0255676 	-6.32369e-20
0.109375 	-0.96875 	0.5 	39.5941 	-0.0280703 	-1.34384e-19
0.125 	-0.96875 	0.5 	39.5959 	-0.0305574 	-1.76563e-19
0.140625 	-0.96875 	0.5 	39.5978 	-0.032589 	-6.6555e-20
0.15625 	-0.96875 	0.5 	39.5998 	-0.0345075 	4.9783e-21
0.171875 	-0.96875 	0.5 	39.6015 	-0.0364632 	-2.49494e-20
0.1875 	-0.96875 	0.5 	39.6033 	-0.0385886 	-3.2717e-20
0.203125 	-0.96875 	0.5 	39.605 	-0.0400688 	-9.38113e-20
0.21875 	-0.96875 	0.5 	39.6066 	-0.0418063 	8.70419e-20
0.234375 	-0.96875 	0.5 	39.6086 	-0.0434903 	8.5583e-20
0.25 	-0.96875 	0.5 	39.6101 	-0.0447482 	3.42315e-19
0.265625 	-0.96875 	0.5 	39.6115 	-0.0459724 	-2.94445e-19
0.28125 	-0.96875 	0.5 	39.6128 	-0.0473791 	-3.50055e-20
0.296875 	-0.96875 	0.5 	39.6143 	-0.0484146 	-2.85262e-22
0.3125 	-0.96875 	0.5 	39.6155 	-0.0495915 	-6.73335e-20
0.328125 	-0.96875 	0.5 	39.6166 	-0.0510276 	4.3646e-20
0.34375 	-0.96875 	0.5 	39.6176 	-0.0518187 	3.89166e-19
0.359375 	-0.96875 	0.5 	39.6183 	-0.0530569 	-2.76981e-19
0.375 	-0.96875 	0.5 	39.6191 	-0.0541329 	-2.49023e-19
0.390625 	-0.96875 	0.5 	39.6198 	-0.0549955 	-3.82796e-19
0.40625 	-0.96875 	0.5 	39.6205 	-0.0559155 	-9.93029e-20
0.421875 	-0.96875 	0.5 	39.6209 	-0.057046 	7.36418e-19
0.4375 	-0.96875 	0.5 	39.6213 	-0.058106 	4.33525e-19
0.453125 	-0.96875 	0.5 	39.6218 	-0.0590333 	6.85654e-19
0.46875 	-0.96875 	0.5 	39.6219 	-0.0600786 	-4.15206e-19
0.484375 	-0.96875 	0.5 	39.6221 	-0.0613613 	-5.52985e-20
0.5 	-0.96875 	0.5 	39.6224 	-0.0626678 	1.06489e-19
0.515625 	-0.96875 	0.5 	39.6227 	-0.0639313 	2.55182e-19
0.53125 	-0.96875 	0.5 	39.6224 	-0.065446 	-4.72972e-21
0.546875 	-0.96875 	0.5 	39.6221 	-0.0665297 	-1.64834e-19
0.5625 	-0.96875 	0.5 	39.6219 	-0.0679912 	-1.05248e-19
0.578125 	-0.96875 	0.5 	39.6219 	-0.0695449 	3.5588e-20
0.59375 	-0.96875 	0.5 	39.6217 	-0.0711683 	-5.54745e-19
0.609375 	-0.96875 	0.5 	39.6214 	-0.0728409 	-4.41769e-19
0.625 	-0.96875 	0.5 	39.621 	-0.0744599 	-5.80099e-19
0.640625 	-0.96875 	0.5 	39.6206 	-0.0764509 	-6.76826e-19
0.65625 	-0.96875 	0.5 	39.6202 	-0.0783897 	-5.21411e-19
0.671875 	-0.96875 	0.5 	39.6199 	-0.0801674 	2.59468e-19
0.6875 	-0.96875 	0.5 	39.6195 	-0.0826353 	6.72311e-21
0.703125 	-0.96875 	0.5 	39.6193 	-0.0847948 	9.05854e-20
0.71875 	-0.96875 	0.5 	39.6189 	-0.0868646 	1.56067e-19
0.734375 	-0.96875 	0.5 	39.6187 	-0.0894883 	2.53344e-19
0.75 	-0.96875 	0.5 	39.6184 	-0.0920471 	3.09022e-19
0.765625 	-0.96875 	0.5 	39.6183 	-0.0951378 	1.44549e-18
0.78125 	-0.96875 	0.5 	39.618 	-0.0973929 	6.22818e-19
0.796875 	-0.96875 	0.5 	39.6177 	-0.0997972 	1.03468e-19
0.8125 	-0.96875 	0.5 	39.6175 	-0.102518 	6.62418e-20
0.828125 	-0.96875 	0.5 	39.6175 	-0.105421 	-3.27753e-19
0.84375 	-0.96875 	0.5 	39.6176 	-0.108321 	-7.23858e-19
0.859375 	-0.96875 	0.5 	39.6174 	-0.111719 	-4.90215e-22
0.875 	-0.96875 	0.5 	39.6176 	-0.114952 	3.32067e-20
0.890625 	-0.96875 	0.5 	39.6176 	-0.117949 	-5.74763e-20
0.90625 	-0.96875 	0.5 	39.6177 	-0.121381 	6.38029e-20
0.921875 	-0.96875 	0.5 	39.6182 	-0.124601 	8.36113e-19
0.9375 	-0.96875 	0.5 	39.6189 	-0.128149 	-4.43103e-19
0.953125 	-0.96875 	0.5 	39.6196 	-0.131439 	-8.3848e-19
0.96875 	-0.96875 	0.5 	39.6204 	-0.134493 	1.20564e-18
0.984375 	-0.96875 	0.5 	39.6212 	-0.137853 	1.3605e-18
1 	-0.96875 	0.5 	39.6218 	-0.141608 	-7.36853e-19
1.01562 	-0.96875 	0.5 	39.6226 	-0.144933 	-1.69061e-19
1.03125 	-0.96875 	0.5 	39.6235 	-0.148585 	8.96513e-19
1.04688 	-0.96875 	0.5 	39.6246 	-0.152188 	1.45003e-19
1.0625 	-0.96875 	0.5 	39.6261 	-0.155775 	6.13602e-20
1.07812 	-0.96875 	0.5 	39.6279 	-0.159422 	-9.28476e-20
1.09375 	-0.96875 	0.5 	39.6293 	-0.163521 	-1.25705e-19
1.10938 	-0.96875 	0.5 	39.6311 	-0.166768 	-5.52134e-19
1.125 	-0.96875 	0.5 	39.6324 	-0.170111 	5.8452e-20
1.14062 	-0.96875 	0.5 	39.6346 	-0.173984 	8.72088e-19
1.15625 	-0.96875 	0.5 	39.6365 	-0.177391 	3.44761e-19
1.17188 	-0.96875 	0.5 	39.6385 	-0.180642 	-2.35685e-19
1.1875 	-0.96875 	0.5 	39.6411 	-0.184311 	-1.33783e-18
1.20312 	-0.96875 	0.5 	39.644 	-0.188266 	-7.48256e-19
1.21875 	-0.96875 	0.5 	39.6468 	-0.192221 	-1.58679e-19
1.23438 	-0.96875 	0.5 	39.6495 	-0.19602 	1.40834e-19
1.25 	-0.96875 	0.5 	39.6521 	-0.19963 	6.94369e-20
1.26562 	-0.96875 	0.5 	39.6547 	-0.20324 	-1.95985e-21
1.28125 	-0.96875 	0.5 	39.6567 	-0.205049 	-3.65838e-19
1.29688 	-0.96875 	0.5 	39.659 	-0.206445 	-4.6934e-19
1.3125 	-0.96875 	0.5 	39.6614 	-0.209204 	-4.03738e-19
1.32812 	-0.96875 	0.5 	39.6642 	-0.212388 	-1.25148e-19
1.34375 	-0.96875 	0.5 	39.6668 	-0.215789 	5.40085e-19
1.35938 	-0.96875 	0.5 	39.6698 	-0.218864 	2.18569e-19
1.375 	-0.96875 	0.5 	39.6732 	-0.221762 	2.04833e-19
1.39062 	-0.96875 	0.5 	39.6766 	-0.22407 	5.73259e-20
1.40625 	-0.96875 	0.5 	39.6797 	-0.22777 	2.7381e-18
1.42188 	-0.96875 	0.5 	39.6835 	-0.230148 	1.98618e-18
1.4375 	-0.96875 	0.5 	39.687 	-0.231939 	-1.46953e-18
1.45312 	-0.96875 	0.5 	39.6903 	-0.233603 	-1.45982e-19
1.46875 	-0.96875 	0.5 	39.693 	-0.235225 	1.25646e-18
1.48438 	-0.96875 	0.5 	39.6963 	-0.238127 	-1.61732e-19
-0.5 	-0.953125 	0.5 	39.5797 	0.133321 	-6.77965e-19
-0.484375 	-0.953125 	0.5 	39.5773 	0.129118 	-6.44465e-19
-0.46875 	-0.953125 	0.5 	39.5745 	0.124978 	-3.40506e-19
-0.453125 	-0.953125 	0.5 	39.5716 	0.120934 	-9.63282e-21
-0.4375 	-0.953125 	0.5 	39.5703 	0.116376 	-1.30509e-19
-0.421875 	-0.953125 	0.5 	39.5686 	0.11134 	-1.94289e-18
-0.40625 	-0.953125 	0.5 	39.5672 	0.106802 	-1.70625e-18
-0.390625 	-0.953125 	0.5 	39.5659 	0.102465 	1.53807e-19
-0.375 	-0.953125 	0.5 	39.564 	0.0973088 	-1.60066e-20
-0.359375 	-0.953125 	0.5 	39.5632 	0.0923091 	-4.16261e-19
-0.34375 	-0.953125 	0.5 	39.5622 	0.0875557 	-5.51868e-20
-0.328125 	-0.953125 	0.5 	39.5611 	0.0823012 	-1.06221e-19
-0.3125 	-0.953125 	0.5 	39.5606 	0.0774318 	-3.22975e-20
-0.296875 	-0.953125 	0.5 	39.5601 	0.0726923 	1.42377e-19
-0.28125 	-0.953125 	0.5 	39.5596 	0.0677103 	4.54794e-19
-0.265625 	-0.953125 	0.5 	39.5594 	0.06274 	-6.57423e-19
-0.25 	-0.953125 	0.5 	39.5589 	0.0576807 	-2.52079e-18
-0.234375 	-0.953125 	0.5 	39.5592 	0.0529106 	-7.57899e-19
-0.21875 	-0.953125 	0.5 	39.5589 	0.0481729 	-7.66082e-19
-0.203125 	-0.953125 	0.5 	39.5591 	0.0428308 	-2.24137e-19
-0.1875 	-0.953125 	0.5 	39.5599 	0.0383951 	1.96165e-20
-0.171875 	-0.953125 	0.5 	39.5609 	0.0340371 	-4.0092e-19
-0.15625 	-0.953125 	0.5 	39.5624 	0.0293688 	-2.62785e-19
-0.140625 	-0.953125 	0.5 	39.563 	0.0242449 	-8.02119e-19
-0.125 	-0.953125 	0.5 	39.5635 	0.0200886 	-9.83605e-19
-0.109375 	-0.953125 	0.5 	39.5645 	0.0169907 	-5.93165e-19
-0.09375 	-0.953125 	0.5 	39.5652 	0.0127433 	-5.98857e-19
-0.078125 	-0.953125 	0.5 	39.5671 	0.00820794 	-6.16667e-19
-0.0625 	-0.953125 	0.5 	39.5692 	0.00407661 	-5.34351e-19
-0.046875 	-0.953125 	0.5 	39.5712 	0.000354383 	-7.10891e-20
-0.03125 	-0.953125 	0.5 	39.5733 	-0.00308657 	8.51493e-19
-0.015625 	-0.953125 	0.5 	39.5751 	-0.00656072 	3.66292e-19
0 	-0.953125 	0.5 	39.5768 	-0.0100397 	1.1918e-19
0.015625 	-0.953125 	0.5 	39.5784 	-0.0135769 	-1.0279e-20
0.03125 	-0.953125 	0.5 	39.5808 	-0.0161415 	3.7441e-19
0.046875 	-0.953125 	0.5 	39.583 	-0.0195658 	-1.35618e-18
0.0625 	-0.953125 	0.5 	39.5852 	-0.0223956 	-1.3483e-19
0.078125 	-0.953125 	0.5 	39.5868 	-0.0250999 	3.04799e-19
0.09375 	-0.953125 	0.5 	39.589 	-0.027756 	5.10015e-19
0.109375 	-0.953125 	0.5 	39.591 	-0.0299579 	-1.53316e-19
0.125 	-0.953125 	0.5 	39.5928 	-0.0322616 	-1.17774e-19
0.140625 	-0.953125 	0.5 	39.5948 	-0.0343427 	-2.67703e-19
0.15625 	-0.953125 	0.5 	39.5969 	-0.0364608 	-9.89637e-20
0.171875 	-0.953125 	0.5 	39.5987 	-0.0382579 	6.31412e-19
0.1875 	-0.953125 	0.5 	39.6005 	-0.0400266 	3.57137e-19
0.203125 	-0.953125 	0.5 	39.6022 	-0.0418919 	3.33847e-20
0.21875 	-0.953125 	0.5 	39.6041 	-0.0435819 	3.55296e-20
0.234375 	-0.953125 	0.5 	39.6061 	-0.044982 	2.57207e-20
0.25 	-0.953125 	0.5 	39.608 	-0.0462356 	4.99215e-20
0.265625 	-0.953125 	0.5 	39.6095 	-0.0473867 	-5.68662e-20
0.28125 	-0.953125 	0.5 	39.6108 	-0.0486111 	9.51319e-20
0.296875 	-0.953125 	0.5 	39.6121 	-0.0497737 	1.18793e-19
0.3125 	-0.953125 	0.5 	39.6137 	-0.0508112 	-5.91366e-20
0.328125 	-0.953125 	0.5 	39.6147 	-0.0518156 	2.99203e-19
0.34375 	-0.953125 	0.5 	39.6155 	-0.0527825 	-1.25464e-21
0.359375 	-0.953125 	0.5 	39.6163 	-0.0537718 	-3.50878e-19
0.375 	-0.953125 	0.5 	39.617 	-0.0547966 	-7.47175e-19
0.390625 	-0.953125 	0.5 	39.6178 	-0.0555968 	-6.36197e-19
0.40625 	-0.953125 	0.5 	39.6186 	-0.0564358 	-4.69491e-19
0.421875 	-0.953125 	0.5 	39.6191 	-0.0575334 	1.85693e-19
0.4375 	-0.953125 	0.5 	39.6196 	-0.0584809 	3.4863e-19
0.453125 	-0.953125 	0.5 	39.6201 	-0.0593546 	9.72809e-19
0.46875 	-0.953125 	0.5 	39.6202 	-0.0603584 	-2.02201e-19
0.484375 	-0.953125 	0.5 	39.6203 	-0.0616388 	6.42786e-19
0.5 	-0.953125 	0.5 	39.6204 	-0.0627297 	7.45725e-19
0.515625 	-0.953125 	0.5 	39.6205 	-0.0639156 	2.56966e-19
0.53125 	-0.953125 	0.5 	39.6203 	-0.0651588 	5.97288e-20
0.546875 	-0.953125 	0.5 	39.6201 	-0.0663094 	-1.2827e-19
0.5625 	-0.953125 	0.5 	39.6197 	-0.0679367 	-1.63166e-20
0.578125 	-0.953125 	0.5 	39.6196 	-0.0693436 	5.32364e-20
0.59375 	-0.953125 	0.5 	39.6193 	-0.0708113 	2.99757e-19
0.609375 	-0.953125 	0.5 	39.6192 	-0.0725168 	1.2508e-18
0.625 	-0.953125 	0.5 	39.6185 	-0.0741059 	-3.92806e-19
0.640625 	-0.953125 	0.5 	39.6181 	-0.0759456 	-6.27719e-19
0.65625 	-0.953125 	0.5 	39.6177 	-0.0778401 	-5.43375e-19
0.671875 	-0.953125 	0.5 	39.6173 	-0.0798331 	3.84885e-19
0.6875 	-0.953125 	0.5 	39.6168 	-0.081979 	8.92982e-20
0.703125 	-0.953125 	0.5 	39.6165 	-0.0842387 	2.32788e-20
0.71875 	-0.953125 	0.5 	39.6159 	-0.0865117 	9.96639e-20
0.734375 	-0.953125 	0.5 	39.6155 	-0.0890285 	5.84434e-20
0.75 	-0.953125 	0.5 	39.6152 	-0.0916462 	2.19915e-19
0.765625 	-0.953125 	0.5 	39.6147 	-0.0944355 	2.29935e-19
0.78125 	-0.953125 	0.5 	39.6143 	-0.0972464 	1.57896e-20
0.796875 	-0.953125 	0.5 	39.6142 	-0.099475 	-4.47415e-20
0.8125 	-0.953125 	0.5 	39.6137 	-0.10234 	3.76018e-20
0.828125 	-0.953125 	0.5 	39.614 	-0.105668 	8.37949e-19
0.84375 	-0.953125 	0.5 	39.6138 	-0.108696 	5.13689e-19
0.859375 	-0.953125 	0.5 	39.6137 	-0.111725 	1.89428e-19
0.875 	-0.953125 	0.5 	39.6136 	-0.114957 	1.50206e-19
0.890625 	-0.953125 	0.5 	39.6136 	-0.1182 	1.1651e-19
0.90625 	-0.953125 	0.5 	39.6139 	-0.121751 	4.12527e-19
0.921875 	-0.953125 	0.5 	39.6144 	-0.124838 	1.69082e-18
0.9375 	-0.953125 	0.5 	39.6149 	-0.128372 	8.74754e-19
0.953125 	-0.953125 	0.5 	39.6156 	-0.13188 	1.47332e-19
0.96875 	-0.953125 	0.5 	39.6163 	-0.135277 	1.06129e-19
0.984375 	-0.953125 	0.5 	39.6171 	-0.138662 	1.60805e-19
1 	-0.953125 	0.5 	39.6178 	-0.142046 	2.6994e-19
1.01562 	-0.953125 	0.5 	39.6187 	-0.14582 	9.96361e-19
1.03125 	-0.953125 	0.5 	39.6194 	-0.149821 	1.03935e-18
1.04688 	-0.953125 	0.5 	39.6207 	-0.153054 	6.19382e-20
1.0625 	-0.953125 	0.5 	39.6222 	-0.157055 	5.29956e-20
1.07812 	-0.953125 	0.5 	39.6238 	-0.160838 	-3.8198e-20
1.09375 	-0.953125 	0.5 	39.625 	-0.164945 	-3.69292e-20
1.10938 	-0.953125 	0.5 	39.6267 	-0.168689 	-1.27166e-19
1.125 	-0.953125 	0.5 	39.6286 	-0.172115 	-2.49264e-20
1.14062 	-0.953125 	0.5 	39.6306 	-0.175612 	-2.84463e-19
1.15625 	-0.953125 	0.5 	39.6325 	-0.179194 	-2.86658e-19
1.17188 	-0.953125 	0.5 	39.6345 	-0.1828 	-3.87927e-19
1.1875 	-0.953125 	0.5 	39.6369 	-0.186501 	-2.79638e-19
1.20312 	-0.953125 	0.5 	39.6396 	-0.190226 	-3.02079e-20
1.21875 	-0.953125 	0.5 	39.6422 	-0.194287 	1.1663e-20
1.23438 	-0.953125 	0.5 	39.6451 	-0.19781 	1.28097e-19
1.25 	-0.953125 	0.5 	39.6473 	-0.201009 	1.19549e-18
1.26562 	-0.953125 	0.5 	39.6501 	-0.203706 	5.86602e-19
1.28125 	-0.953125 	0.5 	39.6529 	-0.206373 	-1.16951e-19
1.29688 	-0.953125 	0.5 	39.6556 	-0.209634 	-4.22765e-19
1.3125 	-0.953125 	0.5 	39.658 	-0.212002 	-3.63483e-19
1.32812 	-0.953125 	0.5 	39.6606 	-0.215316 	5.82548e-19
1.34375 	-0.953125 	0.5 	39.6633 	-0.218787 	8.64315e-19
1.35938 	-0.953125 	0.5 	39.6664 	-0.221881 	-5.65767e-20
1.375 	-0.953125 	0.5 	39.6698 	-0.22427 	4.21179e-19
1.39062 	-0.953125 	0.5 	39.6732 	-0.227525 	2.2633e-19
1.40625 	-0.953125 	0.5 	39.6767 	-0.230632 	2.64244e-18
1.42188 	-0.953125 	0.5 	39.6805 	-0.233162 	3.02578e-18
1.4375 	-0.953125 	0.5 	39.6842 	-0.235337 	7.64535e-19
1.45312 	-0.953125 	0.5 	39.6875 	-0.236988 	1.01465e-19
1.46875 	-0.953125 	0.5 	39.6907 	-0.239606 	-6.25586e-19
1.48438 	-0.953125 	0.5 	39.6942 	-0.243377 	-3.46143e-18
-0.5 	-0.9375 	0.5 	39.5741 	0.135541 	-1.17722e-18
-0.484375 	-0.9375 	0.5 	39.5715 	0.13122 	-9.28082e-19
-0.46875 	-0.9375 	0.5 	39.5696 	0.126716 	-1.15063e-18
-0.453125 	-0.9375 	0.5 	39.5677 	0.122244 	-6.34334e-19
-0.4375 	-0.9375 	0.5 	39.565 	0.118126 	-3.68317e-19
-0.421875 	-0.9375 	0.5 	39.5635 	0.113343 	-1.2935e-18
-0.40625 	-0.9375 	0.5 	39.562 	0.108811 	-2.77336e-20
-0.390625 	-0.9375 	0.5 	39.5599 	0.103712 	1.50998e-18
-0.375 	-0.9375 	0.5 	39.5582 	0.0984825 	3.51409e-19
-0.359375 	-0.9375 	0.5 	39.5577 	0.0937201 	-1.59636e-18
-0.34375 	-0.9375 	0.5 	39.5566 	0.0885561 	-1.20162e-18
-0.328125 	-0.9375 	0.5 	39.5553 	0.0832839 	-2.83564e-19
-0.3125 	-0.9375 	0.5 	39.5544 	0.0780334 	1.85295e-19
-0.296875 	-0.9375 	0.5 	39.5536 	0.072493 	8.14874e-19
-0.28125 	-0.9375 	0.5 	39.5533 	0.0679463 	4.93677e-19
-0.265625 	-0.9375 	0.5 	39.5538 	0.0623356 	1.77235e-18
-0.25 	-0.9375 	0.5 	39.554 	0.0577974 	-8.70136e-19
-0.234375 	-0.9375 	0.5 	39.554 	0.0529512 	-2.00891e-19
-0.21875 	-0.9375 	0.5 	39.5537 	0.0481221 	-7.55366e-19
-0.203125 	-0.9375 	0.5 	39.5535 	0.0427933 	-6.81621e-19
-0.1875 	-0.9375 	0.5 	39.554 	0.0378285 	-4.28321e-19
-0.171875 	-0.9375 	0.5 	39.5554 	0.0333065 	-2.0357e-19
-0.15625 	-0.9375 	0.5 	39.5568 	0.0286645 	-4.99008e-20
-0.140625 	-0.9375 	0.5 	39.558 	0.0235854 	-3.27353e-19
-0.125 	-0.9375 	0.5 	39.5588 	0.0197383 	1.0737e-19
-0.109375 	-0.9375 	0.5 	39.5595 	0.0152525 	6.80063e-19