-0.5 	-1 	0.5 	53.1407
-0.484375 	-1 	0.5 	52.9846
-0.46875 	-1 	0.5 	52.8131
-0.453125 	-1 	0.5 	52.6498
-0.4375 	-1 	0.5 	52.471
-0.421875 	-1 	0.5 	52.2871
-0.40625 	-1 	0.5 	52.111
-0.390625 	-1 	0.5 	51.9283
-0.375 	-1 	0.5 	51.7443
-0.359375 	-1 	0.5 	51.4936
-0.34375 	-1 	0.5 	51.3216
-0.328125 	-1 	0.5 	51.1394
-0.3125 	-1 	0.5 	50.8826
-0.296875 	-1 	0.5 	50.7063
-0.28125 	-1 	0.5 	50.4463
-0.265625 	-1 	0.5 	50.2672
-0.25 	-1 	0.5 	50.0015
-0.234375 	-1 	0.5 	49.715
-0.21875 	-1 	0.5 	49.461
-0.203125 	-1 	0.5 	49.3335
-0.1875 	-1 	0.5 	49.1109
-0.171875 	-1 	0.5 	48.782
-0.15625 	-1 	0.5 	48.4818
-0.140625 	-1 	0.5 	48.1894
-0.125 	-1 	0.5 	47.932
-0.109375 	-1 	0.5 	47.677
-0.09375 	-1 	0.5 	47.4096
-0.078125 	-1 	0.5 	47.1251
-0.0625 	-1 	0.5 	46.8672
-0.046875 	-1 	0.5 	46.5994
-0.03125 	-1 	0.5 	46.3267
-0.015625 	-1 	0.5 	46.1008
0 	-1 	0.5 	45.824
0.015625 	-1 	0.5 	45.5631
0.03125 	-1 	0.5 	45.3146
0.046875 	-1 	0.5 	45.1164
0.0625 	-1 	0.5 	44.9001
0.078125 	-1 	0.5 	44.6454
0.09375 	-1 	0.5 	44.43
0.109375 	-1 	0.5 	44.2172
0.125 	-1 	0.5 	44.0147
0.140625 	-1 	0.5 	43.8356
0.15625 	-1 	0.5 	43.6899
0.171875 	-1 	0.5 	43.566
0.1875 	-1 	0.5 	43.3829
0.203125 	-1 	0.5 	43.2303
0.21875 	-1 	0.5 	43.0831
0.234375 	-1 	0.5 	42.9407
0.25 	-1 	0.5 	42.886
0.265625 	-1 	0.5 	42.8246
0.28125 	-1 	0.5 	42.74
0.296875 	-1 	0.5 	42.6881
0.3125 	-1 	0.5 	42.6046
0.328125 	-1 	0.5 	42.5757
0.34375 	-1 	0.5 	42.5744
0.359375 	-1 	0.5 	42.6137
0.375 	-1 	0.5 	42.6458
0.390625 	-1 	0.5 	42.6767
0.40625 	-1 	0.5 	42.7219
0.421875 	-1 	0.5 	42.7837
0.4375 	-1 	0.5 	42.8529
0.453125 	-1 	0.5 	42.9306
0.46875 	-1 	0.5 	43.0305
0.484375 	-1 	0.5 	43.1154
0.5 	-1 	0.5 	43.2389
0.515625 	-1 	0.5 	43.448
0.53125 	-1 	0.5 	43.5845
0.546875 	-1 	0.5 	43.7587
0.5625 	-1 	0.5 	43.9404
0.578125 	-1 	0.5 	44.062
0.59375 	-1 	0.5 	44.195
0.609375 	-1 	0.5 	44.523
0.625 	-1 	0.5 	44.7548
0.640625 	-1 	0.5 	44.9472
0.65625 	-1 	0.5 	45.1714
0.671875 	-1 	0.5 	45.3933
0.6875 	-1 	0.5 	45.6457
0.703125 	-1 	0.5 	45.9083
0.71875 	-1 	0.5 	46.1583
0.734375 	-1 	0.5 	46.3635
0.75 	-1 	0.5 	46.5261
0.765625 	-1 	0.5 	46.6998
0.78125 	-1 	0.5 	46.9992
0.796875 	-1 	0.5 	47.2265
0.8125 	-1 	0.5 	47.4815
0.828125 	-1 	0.5 	47.7357
0.84375 	-1 	0.5 	48.0171
0.859375 	-1 	0.5 	48.271
0.875 	-1 	0.5 	48.4993
0.890625 	-1 	0.5 	48.7132
0.90625 	-1 	0.5 	48.9445
0.921875 	-1 	0.5 	49.217
0.9375 	-1 	0.5 	49.4197
0.953125 	-1 	0.5 	49.6472
0.96875 	-1 	0.5 	49.8556
0.984375 	-1 	0.5 	50.0819
1 	-1 	0.5 	50.3129
1.01562 	-1 	0.5 	50.5353
1.03125 	-1 	0.5 	50.7319
1.04688 	-1 	0.5 	50.9223
1.0625 	-1 	0.5 	51.0755
1.07812 	-1 	0.5 	51.2406
1.09375 	-1 	0.5 	51.4437
1.10938 	-1 	0.5 	51.6185
1.125 	-1 	0.5 	51.8096
1.14062 	-1 	0.5 	51.9375
1.15625 	-1 	0.5 	52.0692
1.17188 	-1 	0.5 	52.225
1.1875 	-1 	0.5 	52.3759
1.20312 	-1 	0.5 	52.5145
1.21875 	-1 	0.5 	52.6645
1.23438 	-1 	0.5 	52.776
1.25 	-1 	0.5 	52.8904
1.26562 	-1 	0.5 	52.9874
1.28125 	-1 	0.5 	53.0808
1.29688 	-1 	0.5 	53.1978
1.3125 	-1 	0.5 	53.2986
1.32812 	-1 	0.5 	53.3817
1.34375 	-1 	0.5 	53.4545
1.35938 	-1 	0.5 	53.5081
1.375 	-1 	0.5 	53.6025
1.39062 	-1 	0.5 	53.6916
1.40625 	-1 	0.5 	53.7745
1.42188 	-1 	0.5 	53.8347
1.4375 	-1 	0.5 	53.8904
1.45312 	-1 	0.5 	53.9355
1.46875 	-1 	0.5 	53.9959
1.48438 	-1 	0.5 	54.0116
-0.5 	-0.984375 	0.5 	53.2712
-0.484375 	-0.984375 	0.5 	53.1101
-0.46875 	-0.984375 	0.5 	52.9395
-0.453125 	-0.984375 	0.5 	52.7788
-0.4375 	-0.984375 	0.5 	52.5676
-0.421875 	-0.984375 	0.5 	52.3795
-0.40625 	-0.984375 	0.5 	52.2088
-0.390625 	-0.984375 	0.5 	51.9612
-0.375 	-0.984375 	0.5 	51.7768
-0.359375 	-0.984375 	0.5 	51.5875
-0.34375 	-0.984375 	0.5 	51.4244
-0.328125 	-0.984375 	0.5 	51.257
-0.3125 	-0.984375 	0.5 	50.9541
-0.296875 	-0.984375 	0.5 	50.7766
-0.28125 	-0.984375 	0.5 	50.4894
-0.265625 	-0.984375 	0.5 	50.2896
-0.25 	-0.984375 	0.5 	50.0024
-0.234375 	-0.984375 	0.5 	49.7188
-0.21875 	-0.984375 	0.5 	49.4581
-0.203125 	-0.984375 	0.5 	49.2556
-0.1875 	-0.984375 	0.5 	49.0758
-0.171875 	-0.984375 	0.5 	48.7432
-0.15625 	-0.984375 	0.5 	48.4035
-0.140625 	-0.984375 	0.5 	48.0822
-0.125 	-0.984375 	0.5 	47.866
-0.109375 	-0.984375 	0.5 	47.6089
-0.09375 	-0.984375 	0.5 	47.3318
-0.078125 	-0.984375 	0.5 	47.0348
-0.0625 	-0.984375 	0.5 	46.7298
-0.046875 	-0.984375 	0.5 	46.4549
-0.03125 	-0.984375 	0.5 	46.2087
-0.015625 	-0.984375 	0.5 	45.9322
0 	-0.984375 	0.5 	45.7393
0.015625 	-0.984375 	0.5 	45.484
0.03125 	-0.984375 	0.5 	45.1527
0.046875 	-0.984375 	0.5 	44.8867
0.0625 	-0.984375 	0.5 	44.6665
0.078125 	-0.984375 	0.5 	44.43
0.09375 	-0.984375 	0.5 	44.1681
0.109375 	-0.984375 	0.5 	43.9524
0.125 	-0.984375 	0.5 	43.7507
0.140625 	-0.984375 	0.5 	43.5718
0.15625 	-0.984375 	0.5 	43.419
0.171875 	-0.984375 	0.5 	43.2929
0.1875 	-0.984375 	0.5 	43.099
0.203125 	-0.984375 	0.5 	42.945
0.21875 	-0.984375 	0.5 	42.7533
0.234375 	-0.984375 	0.5 	42.6184
0.25 	-0.984375 	0.5 	42.6058
0.265625 	-0.984375 	0.5 	42.5364
0.28125 	-0.984375 	0.5 	42.4416
0.296875 	-0.984375 	0.5 	42.3578
0.3125 	-0.984375 	0.5 	42.2868
0.328125 	-0.984375 	0.5 	42.2455
0.34375 	-0.984375 	0.5 	42.2469
0.359375 	-0.984375 	0.5 	42.2788
0.375 	-0.984375 	0.5 	42.3186
0.390625 	-0.984375 	0.5 	42.33
0.40625 	-0.984375 	0.5 	42.3784
0.421875 	-0.984375 	0.5 	42.442
0.4375 	-0.984375 	0.5 	42.5226
0.453125 	-0.984375 	0.5 	42.6205
0.46875 	-0.984375 	0.5 	42.7099
0.484375 	-0.984375 	0.5 	42.8047
0.5 	-0.984375 	0.5 	42.9793
0.515625 	-0.984375 	0.5 	43.1811
0.53125 	-0.984375 	0.5 	43.3398
0.546875 	-0.984375 	0.5 	43.5178
0.5625 	-0.984375 	0.5 	43.7286
0.578125 	-0.984375 	0.5 	43.9486
0.59375 	-0.984375 	0.5 	44.0807
0.609375 	-0.984375 	0.5 	44.139
0.625 	-0.984375 	0.5 	44.4989
0.640625 	-0.984375 	0.5 	44.6975
0.65625 	-0.984375 	0.5 	44.9604
0.671875 	-0.984375 	0.5 	45.1845
0.6875 	-0.984375 	0.5 	45.4579
0.703125 	-0.984375 	0.5 	45.7213
0.71875 	-0.984375 	0.5 	45.9824
0.734375 	-0.984375 	0.5 	46.1849
0.75 	-0.984375 	0.5 	46.4175
0.765625 	-0.984375 	0.5 	46.65
0.78125 	-0.984375 	0.5 	46.8941
0.796875 	-0.984375 	0.5 	47.2
0.8125 	-0.984375 	0.5 	47.4914
0.828125 	-0.984375 	0.5 	47.803
0.84375 	-0.984375 	0.5 	47.9798
0.859375 	-0.984375 	0.5 	48.2321
0.875 	-0.984375 	0.5 	48.4559
0.890625 	-0.984375 	0.5 	48.6902
0.90625 	-0.984375 	0.5 	48.9435
0.921875 	-0.984375 	0.5 	49.1885
0.9375 	-0.984375 	0.5 	49.4176
0.953125 	-0.984375 	0.5 	49.6478
0.96875 	-0.984375 	0.5 	49.8775
0.984375 	-0.984375 	0.5 	50.1035
1 	-0.984375 	0.5 	50.3301
1.01562 	-0.984375 	0.5 	50.5714
1.03125 	-0.984375 	0.5 	50.7832
1.04688 	-0.984375 	0.5 	50.9496
1.0625 	-0.984375 	0.5 	51.1198
1.07812 	-0.984375 	0.5 	51.3238
1.09375 	-0.984375 	0.5 	51.4546
1.10938 	-0.984375 	0.5 	51.6678
1.125 	-0.984375 	0.5 	51.8759
1.14062 	-0.984375 	0.5 	52.0211
1.15625 	-0.984375 	0.5 	52.1664
1.17188 	-0.984375 	0.5 	52.3116
1.1875 	-0.984375 	0.5 	52.4569
1.20312 	-0.984375 	0.5 	52.5987
1.21875 	-0.984375 	0.5 	52.74
1.23438 	-0.984375 	0.5 	52.8817
1.25 	-0.984375 	0.5 	52.9911
1.26562 	-0.984375 	0.5 	53.0905
1.28125 	-0.984375 	0.5 	53.198
1.29688 	-0.984375 	0.5 	53.2922
1.3125 	-0.984375 	0.5 	53.3961
1.32812 	-0.984375 	0.5 	53.4946
1.34375 	-0.984375 	0.5 	53.5589
1.35938 	-0.984375 	0.5 	53.632
1.375 	-0.984375 	0.5 	53.7073
1.39062 	-0.984375 	0.5 	53.7758
1.40625 	-0.984375 	0.5 	53.8421
1.42188 	-0.984375 	0.5 	53.9158
1.4375 	-0.984375 	0.5 	53.986
1.45312 	-0.984375 	0.5 	54.0435
1.46875 	-0.984375 	0.5 	54.0653
1.48438 	-0.984375 	0.5 	54.0945
-0.5 	-0.96875 	0.5 	53.4
-0.484375 	-0.96875 	0.5 	53.2496
-0.46875 	-0.96875 	0.5 	53.1138
-0.453125 	-0.96875 	0.5 	52.9127
-0.4375 	-0.96875 	0.5 	52.6937
-0.421875 	-0.96875 	0.5 	52.4892
-0.40625 	-0.96875 	0.5 	52.3066
-0.390625 	-0.96875 	0.5 	52.0633
-0.375 	-0.96875 	0.5 	51.8594
-0.359375 	-0.96875 	0.5 	51.6955
-0.34375 	-0.96875 	0.5 	51.5447
-0.328125 	-0.96875 	0.5 	51.3604
-0.3125 	-0.96875 	0.5 	51.0547
-0.296875 	-0.96875 	0.5 	50.8048
-0.28125 	-0.96875 	0.5 	50.5912
-0.265625 	-0.96875 	0.5 	50.3547
-0.25 	-0.96875 	0.5 	50.0444
-0.234375 	-0.96875 	0.5 	49.7452
-0.21875 	-0.96875 	0.5 	49.4362
-0.203125 	-0.96875 	0.5 	49.2352
-0.1875 	-0.96875 	0.5 	49.0636
-0.171875 	-0.96875 	0.5 	48.6519
-0.15625 	-0.96875 	0.5 	48.4236
-0.140625 	-0.96875 	0.5 	48.1437
-0.125 	-0.96875 	0.5 	47.8075
-0.109375 	-0.96875 	0.5 	47.5025
-0.09375 	-0.96875 	0.5 	47.2237
-0.078125 	-0.96875 	0.5 	46.9378
-0.0625 	-0.96875 	0.5 	46.6244
-0.046875 	-0.96875 	0.5 	46.3545
-0.03125 	-0.96875 	0.5 	46.027
-0.015625 	-0.96875 	0.5 	45.7619
0 	-0.96875 	0.5 	45.5231
0.015625 	-0.96875 	0.5 	45.2934
0.03125 	-0.96875 	0.5 	45.0019
0.046875 	-0.96875 	0.5 	44.6669
0.0625 	-0.96875 	0.5 	44.4402
0.078125 	-0.96875 	0.5 	44.1874
0.09375 	-0.96875 	0.5 	43.9312
0.109375 	-0.96875 	0.5 	43.6773
0.125 	-0.96875 	0.5 	43.5031
0.140625 	-0.96875 	0.5 	43.2898
0.15625 	-0.96875 	0.5 	43.1312
0.171875 	-0.96875 	0.5 	42.9641
0.1875 	-0.96875 	0.5 	42.751
0.203125 	-0.96875 	0.5 	42.5093
0.21875 	-0.96875 	0.5 	42.4133
0.234375 	-0.96875 	0.5 	42.2629
0.25 	-0.96875 	0.5 	42.1867
0.265625 	-0.96875 	0.5 	42.1723
0.28125 	-0.96875 	0.5 	42.0638
0.296875 	-0.96875 	0.5 	42.0064
0.3125 	-0.96875 	0.5 	41.9292
0.328125 	-0.96875 	0.5 	41.8971
0.34375 	-0.96875 	0.5 	41.9117
0.359375 	-0.96875 	0.5 	41.9122
0.375 	-0.96875 	0.5 	41.9358
0.390625 	-0.96875 	0.5 	41.9842
0.40625 	-0.96875 	0.5 	42.0289
0.421875 	-0.96875 	0.5 	42.0878
0.4375 	-0.96875 	0.5 	42.1989
0.453125 	-0.96875 	0.5 	42.3017
0.46875 	-0.96875 	0.5 	42.3909
0.484375 	-0.96875 	0.5 	42.5241
0.5 	-0.96875 	0.5 	42.688
0.515625 	-0.96875 	0.5 	42.9119
0.53125 	-0.96875 	0.5 	43.0747
0.546875 	-0.96875 	0.5 	43.2854
0.5625 	-0.96875 	0.5 	43.4897
0.578125 	-0.96875 	0.5 	43.6631
0.59375 	-0.96875 	0.5 	43.842
0.609375 	-0.96875 	0.5 	44.0299
0.625 	-0.96875 	0.5 	44.0587
0.640625 	-0.96875 	0.5 	44.3395
0.65625 	-0.96875 	0.5 	44.7123
0.671875 	-0.96875 	0.5 	44.9906
0.6875 	-0.96875 	0.5 	45.2803
0.703125 	-0.96875 	0.5 	45.5712
0.71875 	-0.96875 	0.5 	45.8398
0.734375 	-0.96875 	0.5 	46.1277
0.75 	-0.96875 	0.5 	46.3256
0.765625 	-0.96875 	0.5 	46.5433
0.78125 	-0.96875 	0.5 	46.8182
0.796875 	-0.96875 	0.5 	47.1206
0.8125 	-0.96875 	0.5 	47.4798
0.828125 	-0.96875 	0.5 	47.729
0.84375 	-0.96875 	0.5 	47.9317
0.859375 	-0.96875 	0.5 	48.1871
0.875 	-0.96875 	0.5 	48.4399
0.890625 	-0.96875 	0.5 	48.6667
0.90625 	-0.96875 	0.5 	48.9232
0.921875 	-0.96875 	0.5 	49.2043
0.9375 	-0.96875 	0.5 	49.4755
0.953125 	-0.96875 	0.5 	49.6886
0.96875 	-0.96875 	0.5 	49.8982
0.984375 	-0.96875 	0.5 	50.125
1 	-0.96875 	0.5 	50.3595
1.01562 	-0.96875 	0.5 	50.6075
1.03125 	-0.96875 	0.5 	50.84
1.04688 	-0.96875 	0.5 	51.0288
1.0625 	-0.96875 	0.5 	51.2118
1.07812 	-0.96875 	0.5 	51.4069
1.09375 	-0.96875 	0.5 	51.5939
1.10938 	-0.96875 	0.5 	51.8082
1.125 	-0.96875 	0.5 	51.9885
1.14062 	-0.96875 	0.5 	52.1224
1.15625 	-0.96875 	0.5 	52.2523
1.17188 	-0.96875 	0.5 	52.4053
1.1875 	-0.96875 	0.5 	52.5678
1.20312 	-0.96875 	0.5 	52.7395
1.21875 	-0.96875 	0.5 	52.9054
1.23438 	-0.96875 	0.5 	53.0029
1.25 	-0.96875 	0.5 	53.1231
1.26562 	-0.96875 	0.5 	53.1849
1.28125 	-0.96875 	0.5 	53.3277
1.29688 	-0.96875 	0.5 	53.4234
1.3125 	-0.96875 	0.5 	53.5108
1.32812 	-0.96875 	0.5 	53.6075
1.34375 	-0.96875 	0.5 	53.6783
1.35938 	-0.96875 	0.5 	53.764
1.375 	-0.96875 	0.5 	53.8452
1.39062 	-0.96875 	0.5 	53.9503
1.40625 	-0.96875 	0.5 	54.034
1.42188 	-0.96875 	0.5 	54.086
1.4375 	-0.96875 	0.5 	54.1067
1.45312 	-0.96875 	0.5 	54.1429
1.46875 	-0.96875 	0.5 	54.18
1.48438 	-0.96875 	0.5 	54.2076
-0.5 	-0.953125 	0.5 	53.5263
-0.484375 	-0.953125 	0.5 	53.3443
-0.46875 	-0.953125 	0.5 	53.1944
-0.453125 	-0.953125 	0.5 	53.0434
-0.4375 	-0.953125 	0.5 	52.841
-0.421875 	-0.953125 	0.5 	52.6394
-0.40625 	-0.953125 	0.5 	52.4055
-0.390625 	-0.953125 	0.5 	52.1982
-0.375 	-0.953125 	0.5 	51.9976
-0.359375 	-0.953125 	0.5 	51.7954
-0.34375 	-0.953125 	0.5 	51.5805
-0.328125 	-0.953125 	0.5 	51.3501
-0.3125 	-0.953125 	0.5 	51.1197
-0.296875 	-0.953125 	0.5 	50.8704
-0.28125 	-0.953125 	0.5 	50.644
-0.265625 	-0.953125 	0.5 	50.3996
-0.25 	-0.953125 	0.5 	50.0762
-0.234375 	-0.953125 	0.5 	49.7727
-0.21875 	-0.953125 	0.5 	49.4701
-0.203125 	-0.953125 	0.5 	49.1428
-0.1875 	-0.953125 	0.5 	48.9421
-0.171875 	-0.953125 	0.5 	48.684
-0.15625 	-0.953125 	0.5 	48.405
-0.140625 	-0.953125 	0.5 	48.0779
-0.125 	-0.953125 	0.5 	47.7458
-0.109375 	-0.953125 	0.5 	47.4322
-0.09375 	-0.953125 	0.5 	47.1223
-0.078125 	-0.953125 	0.5 	46.8223
-0.0625 	-0.953125 	0.5 	46.5223
-0.046875 	-0.953125 	0.5 	46.1987
-0.03125 	-0.953125 	0.5 	45.87
-0.015625 	-0.953125 	0.5 	45.5909
0 	-0.953125 	0.5 	45.3496
0.015625 	-0.953125 	0.5 	45.1101
0.03125 	-0.953125 	0.5 	44.7441
0.046875 	-0.953125 	0.5 	44.4634
0.0625 	-0.953125 	0.5 	44.1988
0.078125 	-0.953125 	0.5 	43.9457
0.09375 	-0.953125 	0.5 	43.6888
0.109375 	-0.953125 	0.5 	43.4525
0.125 	-0.953125 	0.5 	43.2237
0.140625 	-0.953125 	0.5 	43.0085
0.15625 	-0.953125 	0.5 	42.8413
0.171875 	-0.953125 	0.5 	42.6814
0.1875 	-0.953125 	0.5 	42.4784
0.203125 	-0.953125 	0.5 	42.2268
0.21875 	-0.953125 	0.5 	42.0919
0.234375 	-0.953125 	0.5 	41.9575
0.25 	-0.953125 	0.5 	41.8567
0.265625 	-0.953125 	0.5 	41.756
0.28125 	-0.953125 	0.5 	41.6937
0.296875 	-0.953125 	0.5 	41.634
0.3125 	-0.953125 	0.5 	41.5692
0.328125 	-0.953125 	0.5 	41.5343
0.34375 	-0.953125 	0.5 	41.5413
0.359375 	-0.953125 	0.5 	41.5441
0.375 	-0.953125 	0.5 	41.569
0.390625 	-0.953125 	0.5 	41.6223
0.40625 	-0.953125 	0.5 	41.669
0.421875 	-0.953125 	0.5 	41.7437
0.4375 	-0.953125 	0.5 	41.8615
0.453125 	-0.953125 	0.5 	41.9738
0.46875 	-0.953125 	0.5 	42.0979
0.484375 	-0.953125 	0.5 	42.2385
0.5 	-0.953125 	0.5 	42.3735
0.515625 	-0.953125 	0.5 	42.5668
0.53125 	-0.953125 	0.5 	42.7577
0.546875 	-0.953125 	0.5 	42.941
0.5625 	-0.953125 	0.5 	43.1379
0.578125 	-0.953125 	0.5 	43.3789
0.59375 	-0.953125 	0.5 	43.6033
0.609375 	-0.953125 	0.5 	43.8165
0.625 	-0.953125 	0.5 	44.0206
0.640625 	-0.953125 	0.5 	44.2248
0.65625 	-0.953125 	0.5 	44.5195
0.671875 	-0.953125 	0.5 	44.8205
0.6875 	-0.953125 	0.5 	45.1183
0.703125 	-0.953125 	0.5 	45.3888
0.71875 	-0.953125 	0.5 	45.7456
0.734375 	-0.953125 	0.5 	45.9676
0.75 	-0.953125 	0.5 	46.2781
0.765625 	-0.953125 	0.5 	46.4897
0.78125 	-0.953125 	0.5 	46.7588
0.796875 	-0.953125 	0.5 	47.0586
0.8125 	-0.953125 	0.5 	47.3584
0.828125 	-0.953125 	0.5 	47.6425
0.84375 	-0.953125 	0.5 	47.8989
0.859375 	-0.953125 	0.5 	48.1553
0.875 	-0.953125 	0.5 	48.4117
0.890625 	-0.953125 	0.5 	48.669
0.90625 	-0.953125 	0.5 	48.9287
0.921875 	-0.953125 	0.5 	49.2464
0.9375 	-0.953125 	0.5 	49.5253
0.953125 	-0.953125 	0.5 	49.7683
0.96875 	-0.953125 	0.5 	49.9672
0.984375 	-0.953125 	0.5 	50.1641
1 	-0.953125 	0.5 	50.4738
1.01562 	-0.953125 	0.5 	50.679
1.03125 	-0.953125 	0.5 	50.9311
1.04688 	-0.953125 	0.5 	51.1218
1.0625 	-0.953125 	0.5 	51.3162
1.07812 	-0.953125 	0.5 	51.4897
1.09375 	-0.953125 	0.5 	51.7222
1.10938 	-0.953125 	0.5 	51.9263
1.125 	-0.953125 	0.5 	52.0996
1.14062 	-0.953125 	0.5 	52.2448
1.15625 	-0.953125 	0.5 	52.3705
1.17188 	-0.953125 	0.5 	52.5175
1.1875 	-0.953125 	0.5 	52.6828
1.20312 	-0.953125 	0.5 	52.8423
1.21875 	-0.953125 	0.5 	53.0085
1.23438 	-0.953125 	0.5 	53.125
1.25 	-0.953125 	0.5 	53.2476
1.26562 	-0.953125 	0.5 	53.3409
1.28125 	-0.953125 	0.5 	53.4573
1.29688 	-0.953125 	0.5 	53.5478
1.3125 	-0.953125 	0.5 	53.6381
1.32812 	-0.953125 	0.5 	53.7355
1.34375 	-0.953125 	0.5 	53.8162
1.35938 	-0.953125 	0.5 	53.9034
1.375 	-0.953125 	0.5 	53.9821
1.39062 	-0.953125 	0.5 	54.0785
1.40625 	-0.953125 	0.5 	54.165
1.42188 	-0.953125 	0.5 	54.1767
1.4375 	-0.953125 	0.5 	54.228
1.45312 	-0.953125 	0.5 	54.2675
1.46875 	-0.953125 	0.5 	54.2927
1.48438 	-0.953125 	0.5 	54.3343
-0.5 	-0.9375 	0.5 	53.6462
-0.484375 	-0.9375 	0.5 	53.5035
-0.46875 	-0.9375 	0.5 	53.3065
-0.453125 	-0.9375 	0.5 	53.2057
-0.4375 	-0.9375 	0.5 	52.9848
-0.421875 	-0.9375 	0.5 	52.7774
-0.40625 	-0.9375 	0.5 	52.4989
-0.390625 	-0.9375 	0.5 	52.3284
-0.375 	-0.9375 	0.5 	52.1336
-0.359375 	-0.9375 	0.5 	51.8934
-0.34375 	-0.9375 	0.5 	51.6975
-0.328125 	-0.9375 	0.5 	51.4744
-0.3125 	-0.9375 	0.5 	51.2174
-0.296875 	-0.9375 	0.5 	50.9316
-0.28125 	-0.9375 	0.5 	50.6356
-0.265625 	-0.9375 	0.5 	50.3726
-0.25 	-0.9375 	0.5 	50.1067
-0.234375 	-0.9375 	0.5 	49.8034
-0.21875 	-0.9375 	0.5 	49.5008
-0.203125 	-0.9375 	0.5 	49.1985
-0.1875 	-0.9375 	0.5 	48.9493
-0.171875 	-0.9375 	0.5 	48.6743
-0.15625 	-0.9375 	0.5 	48.4404
-0.140625 	-0.9375 	0.5 	48.0461
-0.125 	-0.9375 	0.5 	47.6955
-0.109375 	-0.9375 	0.5 	47.3576
-0.09375 	-0.9375 	0.5 	47.0303
-0.078125 	-0.9375 	0.5 	46.7383
-0.0625 	-0.9375 	0.5 	46.4078
-0.046875 	-0.9375 	0.5 	46.0775
-0.03125 	-0.9375 	0.5 	45.7503
-0.015625 	-0.9375 	0.5 	45.4159
0 	-0.9375 	0.5 	45.1555
0.015625 	-0.9375 	0.5 	44.9296
0.03125 	-0.9375 	0.5 	44.5111
0.046875 	-0.9375 	0.5 	44.2438
0.0625 	-0.9375 	0.5 	43.9412
0.078125 	-0.9375 	0.5 	43.6443
0.09375 	-0.9375 	0.5 	43.4287
0.109375 	-0.9375 	0.5 	43.1566
0.125 	-0.9375 	0.5 	42.9319
0.140625 	-0.9375 	0.5 	42.7296
0.15625 	-0.9375 	0.5 	42.5313
0.171875 	-0.9375 	0.5 	42.3396
0.1875 	-0.9375 	0.5 	42.1375
0.203125 	-0.9375 	0.5 	41.9354
0.21875 	-0.9375 	0.5 	41.7793
0.234375 	-0.9375 	0.5 	41.6558
0.25 	-0.9375 	0.5 	41.5293
0.265625 	-0.9375 	0.5 	41.3843
0.28125 	-0.9375 	0.5 	41.2911
0.296875 	-0.9375 	0.5 	41.2596
0.3125 	-0.9375 	0.5 	41.1689
0.328125 	-0.9375 	0.5 	41.1433
0.34375 	-0.9375 	0.5 	41.1316
0.359375 	-0.9375 	0.5 	41.1455
0.375 	-0.9375 	0.5 	41.1978
0.390625 	-0.9375 	0.5 	41.2325
0.40625 	-0.9375 	0.5 	41.2892
0.421875 	-0.9375 	0.5 	41.3788
0.4375 	-0.9375 	0.5 	41.5018
0.453125 	-0.9375 	0.5 	41.6006
0.46875 	-0.9375 	0.5 	41.7368
0.484375 	-0.9375 	0.5 	41.8832
0.5 	-0.9375 	0.5 	42.0574
0.515625 	-0.9375 	0.5 	42.2749
0.53125 	-0.9375 	0.5 	42.4692
0.546875 	-0.9375 	0.5 	42.6714
0.5625 	-0.9375 	0.5 	42.8902
0.578125 	-0.9375 	0.5 	43.0726
0.59375 	-0.9375 	0.5 	43.375
0.609375 	-0.9375 	0.5 	43.6192
0.625 	-0.9375 	0.5 	43.8308
0.640625 	-0.9375 	0.5 	44.0208
0.65625 	-0.9375 	0.5 	44.3299
0.671875 	-0.9375 	0.5 	44.6269
0.6875 	-0.9375 	0.5 	44.9245
0.703125 	-0.9375 	0.5 	45.2086
0.71875 	-0.9375 	0.5 	45.4971
0.734375 	-0.9375 	0.5 	45.7787
0.75 	-0.9375 	0.5 	46.0687
0.765625 	-0.9375 	0.5 	46.3779
0.78125 	-0.9375 	0.5 	46.6941
0.796875 	-0.9375 	0.5 	46.9626
0.8125 	-0.9375 	0.5 	47.2808
0.828125 	-0.9375 	0.5 	47.5907
0.84375 	-0.9375 	0.5 	47.836
0.859375 	-0.9375 	0.5 	48.0978
0.875 	-0.9375 	0.5 	48.4044
0.890625 	-0.9375 	0.5 	48.7112
0.90625 	-0.9375 	0.5 	49.0015
0.921875 	-0.9375 	0.5 	49.267
0.9375 	-0.9375 	0.5 	49.5573
0.953125 	-0.9375 	0.5 	49.8221
0.96875 	-0.9375 	0.5 	50.0086
0.984375 	-0.9375 	0.5 	50.2017
1 	-0.9375 	0.5 	50.5012
1.01562 	-0.9375 	0.5 	50.7475
1.03125 	-0.9375 	0.5 	51.0082
1.04688 	-0.9375 	0.5 	51.1977
1.0625 	-0.9375 	0.5 	51.391
1.07812 	-0.9375 	0.5 	51.5747
1.09375 	-0.9375 	0.5 	51.8167
1.10938 	-0.9375 	0.5 	52.0373
1.125 	-0.9375 	0.5 	52.1974
1.14062 	-0.9375 	0.5 	52.3361
1.15625 	-0.9375 	0.5 	52.4768
1.17188 	-0.9375 	0.5 	52.6394
1.1875 	-0.9375 	0.5 	52.7934
1.20312 	-0.9375 	0.5 	52.9567
1.21875 	-0.9375 	0.5 	53.1104
1.23438 	-0.9375 	0.5 	53.2361
1.25 	-0.9375 	0.5 	53.3536
1.26562 	-0.9375 	0.5 	53.469
1.28125 	-0.9375 	0.5 	53.5861
1.29688 	-0.9375 	0.5 	53.6821
1.3125 	-0.9375 	0.5 	53.7825
1.32812 	-0.9375 	0.5 	53.8853
1.34375 	-0.9375 	0.5 	53.9618
1.35938 	-0.9375 	0.5 	54.0326
1.375 	-0.9375 	0.5 	54.1165
1.39062 	-0.9375 	0.5 	54.2066
1.40625 	-0.9375 	0.5 	54.25
1.42188 	-0.9375 	0.5 	54.3033
1.4375 	-0.9375 	0.5 	54.3522
1.45312 	-0.9375 	0.5 	54.3904
1.46875 	-0.9375 	0.5 	54.4168
1.48438 	-0.9375 	0.5 	54.4544
-0.5 	-0.921875 	0.5 	53.7729
-0.484375 	-0.921875 	0.5 	53.6401
-0.46875 	-0.921875 	0.5 	53.4824
-0.453125 	-0.921875 	0.5 	53.3356
-0.4375 	-0.921875 	0.5 	53.1167
-0.421875 	-0.921875 	0.5 	52.9217
-0.40625 	-0.921875 	0.5 	52.6789
-0.390625 	-0.921875 	0.5 	52.4665
-0.375 	-0.921875 	0.5 	52.2375
-0.359375 	-0.921875 	0.5 	51.992
-0.34375 	-0.921875 	0.5 	51.8022
-0.328125 	-0.921875 	0.5 	51.5708
-0.3125 	-0.921875 	0.5 	51.2814
-0.296875 	-0.921875 	0.5 	51.0141
-0.28125 	-0.921875 	0.5 	50.6798
-0.265625 	-0.921875 	0.5 	50.4377
-0.25 	-0.921875 	0.5 	50.1661
-0.234375 	-0.921875 	0.5 	49.8634
-0.21875 	-0.921875 	0.5 	49.5451
-0.203125 	-0.921875 	0.5 	49.2293
-0.1875 	-0.921875 	0.5 	48.9441
-0.171875 	-0.921875 	0.5 	48.6552
-0.15625 	-0.921875 	0.5 	48.3394
-0.140625 	-0.921875 	0.5 	48.0236
-0.125 	-0.921875 	0.5 	47.6572
-0.109375 	-0.921875 	0.5 	47.3039
-0.09375 	-0.921875 	0.5 	46.9506
-0.078125 	-0.921875 	0.5 	46.6258
-0.0625 	-0.921875 	0.5 	46.2848
-0.046875 	-0.921875 	0.5 	45.9466
-0.03125 	-0.921875 	0.5 	45.6235
-0.015625 	-0.921875 	0.5 	45.2888
0 	-0.921875 	0.5 	45.0062
0.015625 	-0.921875 	0.5 	44.6787
0.03125 	-0.921875 	0.5 	44.3176
0.046875 	-0.921875 	0.5 	44.0123
0.0625 	-0.921875 	0.5 	43.6913
0.078125 	-0.921875 	0.5 	43.4174
0.09375 	-0.921875 	0.5 	43.1681
0.109375 	-0.921875 	0.5 	42.8864
0.125 	-0.921875 	0.5 	42.6168
0.140625 	-0.921875 	0.5 	42.4204
0.15625 	-0.921875 	0.5 	42.1966
0.171875 	-0.921875 	0.5 	41.9944
0.1875 	-0.921875 	0.5 	41.7864
0.203125 	-0.921875 	0.5 	41.5187
0.21875 	-0.921875 	0.5 	41.4201
0.234375 	-0.921875 	0.5 	41.2451
0.25 	-0.921875 	0.5 	41.1205
0.265625 	-0.921875 	0.5 	41.0162
0.28125 	-0.921875 	0.5 	40.9287
0.296875 	-0.921875 	0.5 	40.831
0.3125 	-0.921875 	0.5 	40.7873
0.328125 	-0.921875 	0.5 	40.755
0.34375 	-0.921875 	0.5 	40.7228
0.359375 	-0.921875 	0.5 	40.7513
0.375 	-0.921875 	0.5 	40.794
0.390625 	-0.921875 	0.5 	40.8368
0.40625 	-0.921875 	0.5 	40.925
0.421875 	-0.921875 	0.5 	41.0157
0.4375 	-0.921875 	0.5 	41.111
0.453125 	-0.921875 	0.5 	41.2358
0.46875 	-0.921875 	0.5 	41.372
0.484375 	-0.921875 	0.5 	41.529
0.5 	-0.921875 	0.5 	41.7048
0.515625 	-0.921875 	0.5 	41.9154
0.53125 	-0.921875 	0.5 	42.1421
0.546875 	-0.921875 	0.5 	42.3395
0.5625 	-0.921875 	0.5 	42.5329
0.578125 	-0.921875 	0.5 	42.7398
0.59375 	-0.921875 	0.5 	43.1505
0.609375 	-0.921875 	0.5 	43.3699
0.625 	-0.921875 	0.5 	43.6237
0.640625 	-0.921875 	0.5 	43.8439
0.65625 	-0.921875 	0.5 	44.1383
0.671875 	-0.921875 	0.5 	44.4402
0.6875 	-0.921875 	0.5 	44.7451
0.703125 	-0.921875 	0.5 	45.0223
0.71875 	-0.921875 	0.5 	45.3121
0.734375 	-0.921875 	0.5 	45.6455
0.75 	-0.921875 	0.5 	45.9412
0.765625 	-0.921875 	0.5 	46.2512
0.78125 	-0.921875 	0.5 	46.5996
0.796875 	-0.921875 	0.5 	46.8956
0.8125 	-0.921875 	0.5 	47.2021
0.828125 	-0.921875 	0.5 	47.5105
0.84375 	-0.921875 	0.5 	47.8072
0.859375 	-0.921875 	0.5 	48.0742
0.875 	-0.921875 	0.5 	48.4168
0.890625 	-0.921875 	0.5 	48.6907
0.90625 	-0.921875 	0.5 	48.9872
0.921875 	-0.921875 	0.5 	49.2484
0.9375 	-0.921875 	0.5 	49.5004
0.953125 	-0.921875 	0.5 	49.8689
0.96875 	-0.921875 	0.5 	50.0955
0.984375 	-0.921875 	0.5 	50.3197
1 	-0.921875 	0.5 	50.5617
1.01562 	-0.921875 	0.5 	50.7936
1.03125 	-0.921875 	0.5 	51.0204
1.04688 	-0.921875 	0.5 	51.2498
1.0625 	-0.921875 	0.5 	51.4677
1.07812 	-0.921875 	0.5 	51.6976
1.09375 	-0.921875 	0.5 	51.9179
1.10938 	-0.921875 	0.5 	52.1448
1.125 	-0.921875 	0.5 	52.294
1.14062 	-0.921875 	0.5 	52.4423
1.15625 	-0.921875 	0.5 	52.6075
1.17188 	-0.921875 	0.5 	52.8139
1.1875 	-0.921875 	0.5 	52.9865
1.20312 	-0.921875 	0.5 	53.1056
1.21875 	-0.921875 	0.5 	53.2211
1.23438 	-0.921875 	0.5 	53.327
1.25 	-0.921875 	0.5 	53.4377
1.26562 	-0.921875 	0.5 	53.6104
1.28125 	-0.921875 	0.5 	53.7307
1.29688 	-0.921875 	0.5 	53.84
1.3125 	-0.921875 	0.5 	53.9343
1.32812 	-0.921875 	0.5 	54.035
1.34375 	-0.921875 	0.5 	54.1123
1.35938 	-0.921875 	0.5 	54.1844
1.375 	-0.921875 	0.5 	54.2566
1.39062 	-0.921875 	0.5 	54.3232
1.40625 	-0.921875 	0.5 	54.3719
1.42188 	-0.921875 	0.5 	54.4202
1.4375 	-0.921875 	0.5 	54.4685
1.45312 	-0.921875 	0.5 	54.5128
1.46875 	-0.921875 	0.5 	54.5449
1.48438 	-0.921875 	0.5 	54.5886
-0.5 	-0.90625 	0.5 	53.9412
-0.484375 	-0.90625 	0.5 	53.7962
-0.46875 	-0.90625 	0.5 	53.6468
-0.453125 	-0.90625 	0.5 	53.4563
-0.4375 	-0.90625 	0.5 	53.2798
-0.421875 	-0.90625 	0.5 	53.0821
-0.40625 	-0.90625 	0.5 	52.8631
-0.390625 	-0.90625 	0.5 	52.5902
-0.375 	-0.90625 	0.5 	52.3729
-0.359375 	-0.90625 	0.5 	52.133
-0.34375 	-0.90625 	0.5 	51.9066
-0.328125 	-0.90625 	0.5 	51.6424
-0.3125 	-0.90625 	0.5 	51.356
-0.296875 	-0.90625 	0.5 	51.0852
-0.28125 	-0.90625 	0.5 	50.7854
-0.265625 	-0.90625 	0.5 	50.538
-0.25 	-0.90625 	0.5 	50.247
-0.234375 	-0.90625 	0.5 	49.9245
-0.21875 	-0.90625 	0.5 	49.6248
-0.203125 	-0.90625 	0.5 	49.2903
-0.1875 	-0.90625 	0.5 	48.9475
-0.171875 	-0.90625 	0.5 	48.6494
-0.15625 	-0.90625 	0.5 	48.3961
-0.140625 	-0.90625 	0.5 	47.9921
-0.125 	-0.90625 	0.5 	47.6002
-0.109375 	-0.90625 	0.5 	47.2116
-0.09375 	-0.90625 	0.5 	46.8927
-0.078125 	-0.90625 	0.5 	46.5117
-0.0625 	-0.90625 	0.5 	46.176
-0.046875 	-0.90625 	0.5 	45.8241
-0.03125 	-0.90625 	0.5 	45.4747
-0.015625 	-0.90625 	0.5 	45.1506
0 	-0.90625 	0.5 	44.8129
0.015625 	-0.90625 	0.5 	44.4588
0.03125 	-0.90625 	0.5 	44.0994
0.046875 	-0.90625 	0.5 	43.7101
0.0625 	-0.90625 	0.5 	43.4536
0.078125 	-0.90625 	0.5 	43.1331
0.09375 	-0.90625 	0.5 	42.8522
0.109375 	-0.90625 	0.5 	42.5838
0.125 	-0.90625 	0.5 	42.3133
0.140625 	-0.90625 	0.5 	42.0912
0.15625 	-0.90625 	0.5 	41.87
0.171875 	-0.90625 	0.5 	41.6403
0.1875 	-0.90625 	0.5 	41.3782
0.203125 	-0.90625 	0.5 	41.1275
0.21875 	-0.90625 	0.5 	41.0417
0.234375 	-0.90625 	0.5 	40.8817
0.25 	-0.90625 	0.5 	40.7066
0.265625 	-0.90625 	0.5 	40.6021
0.28125 	-0.90625 	0.5 	40.496
0.296875 	-0.90625 	0.5 	40.3995
0.3125 	-0.90625 	0.5 	40.3652
0.328125 	-0.90625 	0.5 	40.3334
0.34375 	-0.90625 	0.5 	40.3107
0.359375 	-0.90625 	0.5 	40.3251
0.375 	-0.90625 	0.5 	40.3752
0.390625 	-0.90625 	0.5 	40.4127
0.40625 	-0.90625 	0.5 	40.4928
0.421875 	-0.90625 	0.5 	40.581
0.4375 	-0.90625 	0.5 	40.7055
0.453125 	-0.90625 	0.5 	40.8435
0.46875 	-0.90625 	0.5 	40.9831
0.484375 	-0.90625 	0.5 	41.1639
0.5 	-0.90625 	0.5 	41.3629
0.515625 	-0.90625 	0.5 	41.557
0.53125 	-0.90625 	0.5 	41.757
0.546875 	-0.90625 	0.5 	41.9619
0.5625 	-0.90625 	0.5 	42.1668
0.578125 	-0.90625 	0.5 	42.4868
0.59375 	-0.90625 	0.5 	42.8362
0.609375 	-0.90625 	0.5 	43.0798
0.625 	-0.90625 	0.5 	43.2937
0.640625 	-0.90625 	0.5 	43.5577
0.65625 	-0.90625 	0.5 	43.9089
0.671875 	-0.90625 	0.5 	44.2514
0.6875 	-0.90625 	0.5 	44.5657
0.703125 	-0.90625 	0.5 	44.857
0.71875 	-0.90625 	0.5 	45.1655
0.734375 	-0.90625 	0.5 	45.5067
0.75 	-0.90625 	0.5 	45.8275
0.765625 	-0.90625 	0.5 	46.1312
0.78125 	-0.90625 	0.5 	46.4759
0.796875 	-0.90625 	0.5 	46.8021
0.8125 	-0.90625 	0.5 	47.1565
0.828125 	-0.90625 	0.5 	47.4625
0.84375 	-0.90625 	0.5 	47.7684
0.859375 	-0.90625 	0.5 	48.056
0.875 	-0.90625 	0.5 	48.3686
0.890625 	-0.90625 	0.5 	48.6817
0.90625 	-0.90625 	0.5 	48.9591
0.921875 	-0.90625 	0.5 	49.2374
0.9375 	-0.90625 	0.5 	49.5302
0.953125 	-0.90625 	0.5 	49.8847
0.96875 	-0.90625 	0.5 	50.1726
0.984375 	-0.90625 	0.5 	50.3909
1 	-0.90625 	0.5 	50.6225
1.01562 	-0.90625 	0.5 	50.8896
1.03125 	-0.90625 	0.5 	51.1074
1.04688 	-0.90625 	0.5 	51.3464
1.0625 	-0.90625 	0.5 	51.5716
1.07812 	-0.90625 	0.5 	51.7786
1.09375 	-0.90625 	0.5 	51.9834
1.10938 	-0.90625 	0.5 	52.2373
1.125 	-0.90625 	0.5 	52.4305
1.14062 	-0.90625 	0.5 	52.6001
1.15625 	-0.90625 	0.5 	52.7537
1.17188 	-0.90625 	0.5 	52.9634
1.1875 	-0.90625 	0.5 	53.08
1.20312 	-0.90625 	0.5 	53.2432
1.21875 	-0.90625 	0.5 	53.3574
1.23438 	-0.90625 	0.5 	53.4827
1.25 	-0.90625 	0.5 	53.6053
1.26562 	-0.90625 	0.5 	53.7599
1.28125 	-0.90625 	0.5 	53.8702
1.29688 	-0.90625 	0.5 	53.9795
1.3125 	-0.90625 	0.5 	54.0898
1.32812 	-0.90625 	0.5 	54.1837
1.34375 	-0.90625 	0.5 	54.2597
1.35938 	-0.90625 	0.5 	54.3392
1.375 	-0.90625 	0.5 	54.4144
1.39062 	-0.90625 	0.5 	54.485
1.40625 	-0.90625 	0.5 	54.4994
1.42188 	-0.90625 	0.5 	54.5261
1.4375 	-0.90625 	0.5 	54.5762
1.45312 	-0.90625 	0.5 	54.6343
1.46875 	-0.90625 	0.5 	54.6759
1.48438 	-0.90625 	0.5 	54.7199
-0.5 	-0.890625 	0.5 	54.1144
-0.484375 	-0.890625 	0.5 	53.9696
-0.46875 	-0.890625 	0.5 	53.8109
-0.453125 	-0.890625 	0.5 	53.6117
-0.4375 	-0.890625 	0.5 	53.4183
-0.421875 	-0.890625 	0.5 	53.2369
-0.40625 	-0.890625 	0.5 	52.9711
-0.390625 	-0.890625 	0.5 	52.7355
-0.375 	-0.890625 	0.5 	52.5184
-0.359375 	-0.890625 	0.5 	52.2786
-0.34375 	-0.890625 	0.5 	52.0333
-0.328125 	-0.890625 	0.5 	51.8119
-0.3125 	-0.890625 	0.5 	51.4622
-0.296875 	-0.890625 	0.5 	51.1642
-0.28125 	-0.890625 	0.5 	50.8899
-0.265625 	-0.890625 	0.5 	50.6111
-0.25 	-0.890625 	0.5 	50.3154
-0.234375 	-0.890625 	0.5 	49.9737
-0.21875 	-0.890625 	0.5 	49.6649
-0.203125 	-0.890625 	0.5 	49.3346
-0.1875 	-0.890625 	0.5 	48.9758
-0.171875 	-0.890625 	0.5 	48.6365
-0.15625 	-0.890625 	0.5 	48.323
-0.140625 	-0.890625 	0.5 	47.9541
-0.125 	-0.890625 	0.5 	47.5648
-0.109375 	-0.890625 	0.5 	47.171
-0.09375 	-0.890625 	0.5 	46.7756
-0.078125 	-0.890625 	0.5 	46.3899
-0.0625 	-0.890625 	0.5 	46.0501
-0.046875 	-0.890625 	0.5 	45.7061
-0.03125 	-0.890625 	0.5 	45.3001
-0.015625 	-0.890625 	0.5 	44.9552
0 	-0.890625 	0.5 	44.5989
0.015625 	-0.890625 	0.5 	44.2397
0.03125 	-0.890625 	0.5 	43.8772
0.046875 	-0.890625 	0.5 	43.5289
0.0625 	-0.890625 	0.5 	43.1881
0.078125 	-0.890625 	0.5 	42.8464
0.09375 	-0.890625 	0.5 	42.5453
0.109375 	-0.890625 	0.5 	42.266
0.125 	-0.890625 	0.5 	41.9376
0.140625 	-0.890625 	0.5 	41.7038
0.15625 	-0.890625 	0.5 	41.5239
0.171875 	-0.890625 	0.5 	41.2059
0.1875 	-0.890625 	0.5 	40.9154
0.203125 	-0.890625 	0.5 	40.7451
0.21875 	-0.890625 	0.5 	40.5796
0.234375 	-0.890625 	0.5 	40.4177
0.25 	-0.890625 	0.5 	40.2677
0.265625 	-0.890625 	0.5 	40.1652
0.28125 	-0.890625 	0.5 	40.0565
0.296875 	-0.890625 	0.5 	39.9547
0.3125 	-0.890625 	0.5 	39.9128
0.328125 	-0.890625 	0.5 	39.8833
0.34375 	-0.890625 	0.5 	39.907