-0.5 	-1 	0.5 	39.9746 	-0.111652 	-1.02114e-19
-0.484375 	-1 	0.5 	39.9763 	-0.113446 	-5.18173e-19
-0.46875 	-1 	0.5 	39.9781 	-0.115198 	-8.58526e-19
-0.453125 	-1 	0.5 	39.9798 	-0.116279 	2.40452e-20
-0.4375 	-1 	0.5 	39.9816 	-0.117723 	8.24748e-19
-0.421875 	-1 	0.5 	39.9837 	-0.119279 	1.17527e-19
-0.40625 	-1 	0.5 	39.9862 	-0.121037 	-4.78187e-19
-0.390625 	-1 	0.5 	39.9883 	-0.122785 	-6.71041e-21
-0.375 	-1 	0.5 	39.9906 	-0.124034 	-8.85953e-19
-0.359375 	-1 	0.5 	39.9927 	-0.125615 	-6.58092e-19
-0.34375 	-1 	0.5 	39.9955 	-0.127213 	4.17659e-19
-0.328125 	-1 	0.5 	39.9978 	-0.12883 	2.06455e-19
-0.3125 	-1 	0.5 	40.0003 	-0.12985 	2.88138e-20
-0.296875 	-1 	0.5 	40.0027 	-0.13123 	8.40102e-20
-0.28125 	-1 	0.5 	40.0052 	-0.132754 	1.04014e-19
-0.265625 	-1 	0.5 	40.0081 	-0.134127 	-6.30231e-22
-0.25 	-1 	0.5 	40.0111 	-0.135281 	1.14083e-20
-0.234375 	-1 	0.5 	40.0141 	-0.136577 	-4.12591e-19
-0.21875 	-1 	0.5 	40.0175 	-0.137186 	3.21982e-19
-0.203125 	-1 	0.5 	40.0204 	-0.1381 	6.51863e-19
-0.1875 	-1 	0.5 	40.0232 	-0.137956 	1.09031e-18
-0.171875 	-1 	0.5 	40.0257 	-0.138307 	9.23505e-20
-0.15625 	-1 	0.5 	40.0294 	-0.138837 	-1.48496e-18
-0.140625 	-1 	0.5 	40.0327 	-0.139305 	-2.14932e-19
-0.125 	-1 	0.5 	40.0359 	-0.139274 	5.12829e-20
-0.109375 	-1 	0.5 	40.0391 	-0.139195 	-7.47756e-19
-0.09375 	-1 	0.5 	40.0423 	-0.139404 	-4.98548e-19
-0.078125 	-1 	0.5 	40.0457 	-0.139548 	-6.02006e-19
-0.0625 	-1 	0.5 	40.0489 	-0.139199 	-3.6766e-19
-0.046875 	-1 	0.5 	40.0523 	-0.13892 	-5.84466e-19
-0.03125 	-1 	0.5 	40.0556 	-0.138559 	4.51734e-19
-0.015625 	-1 	0.5 	40.0593 	-0.138015 	2.37521e-19
0 	-1 	0.5 	40.0626 	-0.137343 	6.95024e-19
0.015625 	-1 	0.5 	40.0659 	-0.136399 	1.47855e-19
0.03125 	-1 	0.5 	40.0693 	-0.135453 	-1.48291e-19
0.046875 	-1 	0.5 	40.0725 	-0.134272 	9.19249e-20
0.0625 	-1 	0.5 	40.0759 	-0.132988 	4.46214e-20
0.078125 	-1 	0.5 	40.0791 	-0.131881 	-1.96127e-20
0.09375 	-1 	0.5 	40.0825 	-0.130476 	6.17161e-20
0.109375 	-1 	0.5 	40.0857 	-0.128664 	-6.50239e-19
0.125 	-1 	0.5 	40.0889 	-0.126791 	-1.12438e-18
0.140625 	-1 	0.5 	40.0917 	-0.125135 	3.57462e-20
0.15625 	-1 	0.5 	40.0945 	-0.12319 	1.24241e-19
0.171875 	-1 	0.5 	40.0976 	-0.121352 	-3.50799e-19
0.1875 	-1 	0.5 	40.1005 	-0.118802 	7.14004e-20
0.203125 	-1 	0.5 	40.1033 	-0.116062 	-3.09398e-20
0.21875 	-1 	0.5 	40.1057 	-0.114281 	-1.61511e-19
0.234375 	-1 	0.5 	40.1084 	-0.112234 	-1.69264e-19
0.25 	-1 	0.5 	40.111 	-0.109152 	-6.67556e-20
0.265625 	-1 	0.5 	40.1133 	-0.107387 	-9.65548e-20
0.28125 	-1 	0.5 	40.1156 	-0.104565 	1.49449e-19
0.296875 	-1 	0.5 	40.1176 	-0.102099 	3.57284e-19
0.3125 	-1 	0.5 	40.1194 	-0.0992207 	3.27525e-19
0.328125 	-1 	0.5 	40.1212 	-0.0960532 	-1.16992e-19
0.34375 	-1 	0.5 	40.1236 	-0.0930924 	-2.53758e-20
0.359375 	-1 	0.5 	40.1256 	-0.090351 	-1.02277e-19
0.375 	-1 	0.5 	40.1272 	-0.0874969 	-4.18835e-19
0.390625 	-1 	0.5 	40.1287 	-0.0845069 	-1.26887e-19
0.40625 	-1 	0.5 	40.1302 	-0.081237 	-1.50756e-19
0.421875 	-1 	0.5 	40.1315 	-0.0779741 	-9.9442e-20
0.4375 	-1 	0.5 	40.1326 	-0.0746708 	5.51748e-20
0.453125 	-1 	0.5 	40.1335 	-0.0715191 	8.99598e-20
0.46875 	-1 	0.5 	40.1344 	-0.0684388 	1.59352e-20
0.484375 	-1 	0.5 	40.1353 	-0.0653502 	-1.9413e-19
0.5 	-1 	0.5 	40.1361 	-0.0623398 	-8.84494e-19
0.515625 	-1 	0.5 	40.1371 	-0.0591649 	-5.65926e-19
0.53125 	-1 	0.5 	40.1367 	-0.0553654 	1.42424e-21
0.546875 	-1 	0.5 	40.1378 	-0.0523412 	6.58849e-20
0.5625 	-1 	0.5 	40.1384 	-0.0489381 	4.56356e-19
0.578125 	-1 	0.5 	40.1385 	-0.0459624 	6.23924e-19
0.59375 	-1 	0.5 	40.1386 	-0.0429717 	3.74782e-19
0.609375 	-1 	0.5 	40.1388 	-0.0399871 	8.20482e-20
0.625 	-1 	0.5 	40.1386 	-0.0367567 	-5.50793e-19
0.640625 	-1 	0.5 	40.1384 	-0.0335144 	-1.16781e-18
0.65625 	-1 	0.5 	40.1384 	-0.0304767 	-1.56656e-19
0.671875 	-1 	0.5 	40.1378 	-0.0272111 	-4.55449e-20
0.6875 	-1 	0.5 	40.1374 	-0.0243296 	-1.40831e-19
0.703125 	-1 	0.5 	40.1366 	-0.0214929 	5.25287e-20
0.71875 	-1 	0.5 	40.1357 	-0.0188397 	2.3734e-19
0.734375 	-1 	0.5 	40.1348 	-0.01643 	1.57976e-20
0.75 	-1 	0.5 	40.1341 	-0.0133322 	-3.41802e-19
0.765625 	-1 	0.5 	40.1334 	-0.010071 	-3.81283e-19
0.78125 	-1 	0.5 	40.1321 	-0.00723333 	-2.61186e-20
0.796875 	-1 	0.5 	40.131 	-0.00458722 	6.19504e-20
0.8125 	-1 	0.5 	40.1299 	-0.00209155 	2.25331e-19
0.828125 	-1 	0.5 	40.1288 	0.000233362 	4.0273e-19
0.84375 	-1 	0.5 	40.1271 	0.00292597 	3.56484e-19
0.859375 	-1 	0.5 	40.1256 	0.00555964 	5.18675e-19
0.875 	-1 	0.5 	40.1242 	0.00774511 	-8.90391e-19
0.890625 	-1 	0.5 	40.1228 	0.00985847 	-1.66773e-18
0.90625 	-1 	0.5 	40.1217 	0.0118914 	-1.6351e-19
0.921875 	-1 	0.5 	40.1198 	0.0140775 	-2.18474e-19
0.9375 	-1 	0.5 	40.1183 	0.0161337 	-1.28033e-19
0.953125 	-1 	0.5 	40.1168 	0.0180606 	2.00909e-20
0.96875 	-1 	0.5 	40.1152 	0.0199844 	5.30457e-20
0.984375 	-1 	0.5 	40.1132 	0.021467 	-1.68966e-20
1 	-1 	0.5 	40.1111 	0.0225533 	-1.87552e-20
1.01562 	-1 	0.5 	40.1093 	0.0251932 	-1.2253e-20
1.03125 	-1 	0.5 	40.1077 	0.026545 	2.63826e-21
1.04688 	-1 	0.5 	40.1056 	0.0279901 	8.1648e-21
1.0625 	-1 	0.5 	40.1039 	0.0294612 	-2.34811e-19
1.07812 	-1 	0.5 	40.1017 	0.0306864 	1.18618e-19
1.09375 	-1 	0.5 	40.0995 	0.0318749 	9.85263e-19
1.10938 	-1 	0.5 	40.0976 	0.0329238 	3.89255e-19
1.125 	-1 	0.5 	40.0956 	0.033933 	-1.46796e-20
1.14062 	-1 	0.5 	40.0936 	0.034866 	-6.39824e-20
1.15625 	-1 	0.5 	40.0919 	0.0354454 	-3.01013e-20
1.17188 	-1 	0.5 	40.0902 	0.0360505 	-1.59133e-21
1.1875 	-1 	0.5 	40.0882 	0.0373579 	-1.1968e-19
1.20312 	-1 	0.5 	40.0861 	0.0381993 	-9.30333e-20
1.21875 	-1 	0.5 	40.0839 	0.0388835 	-1.96668e-19
1.23438 	-1 	0.5 	40.0819 	0.0396712 	-6.09057e-20
1.25 	-1 	0.5 	40.08 	0.0400249 	-1.31987e-20
1.26562 	-1 	0.5 	40.0783 	0.0401267 	-4.49376e-21
1.28125 	-1 	0.5 	40.0765 	0.0404061 	4.42755e-20
1.29688 	-1 	0.5 	40.0748 	0.0407285 	-7.62383e-19
1.3125 	-1 	0.5 	40.073 	0.0410519 	-5.19565e-19
1.32812 	-1 	0.5 	40.0711 	0.0413622 	5.50533e-19
1.34375 	-1 	0.5 	40.0692 	0.0411797 	6.01669e-20
1.35938 	-1 	0.5 	40.0674 	0.0414323 	2.03682e-20
1.375 	-1 	0.5 	40.066 	0.0413676 	2.66457e-20
1.39062 	-1 	0.5 	40.0644 	0.0414024 	8.06289e-21
1.40625 	-1 	0.5 	40.0627 	0.0412802 	-7.87239e-20
1.42188 	-1 	0.5 	40.0613 	0.0410556 	-1.20451e-18
1.4375 	-1 	0.5 	40.0598 	0.0408846 	-1.40543e-18
1.45312 	-1 	0.5 	40.0583 	0.040799 	-1.33341e-19
1.46875 	-1 	0.5 	40.0567 	0.0403307 	1.00178e-18
1.48438 	-1 	0.5 	40.0552 	0.0402181 	3.25431e-19
-0.5 	-0.984375 	0.5 	39.9726 	-0.11322 	4.99255e-19
-0.484375 	-0.984375 	0.5 	39.9743 	-0.114753 	1.10872e-18
-0.46875 	-0.984375 	0.5 	39.976 	-0.116305 	3.99539e-19
-0.453125 	-0.984375 	0.5 	39.9777 	-0.118003 	-1.32307e-19
-0.4375 	-0.984375 	0.5 	39.9795 	-0.119411 	1.98826e-19
-0.421875 	-0.984375 	0.5 	39.9821 	-0.121216 	-3.98142e-19
-0.40625 	-0.984375 	0.5 	39.9844 	-0.123033 	-4.40184e-19
-0.390625 	-0.984375 	0.5 	39.9866 	-0.124576 	1.33178e-18
-0.375 	-0.984375 	0.5 	39.9889 	-0.126556 	2.89762e-19
-0.359375 	-0.984375 	0.5 	39.9912 	-0.128192 	1.97902e-20
-0.34375 	-0.984375 	0.5 	39.994 	-0.129622 	3.65143e-19
-0.328125 	-0.984375 	0.5 	39.9967 	-0.131104 	5.52074e-19
-0.3125 	-0.984375 	0.5 	39.9989 	-0.132478 	8.89963e-20
-0.296875 	-0.984375 	0.5 	40.0014 	-0.133976 	1.24601e-19
-0.28125 	-0.984375 	0.5 	40.0041 	-0.135486 	9.80469e-20
-0.265625 	-0.984375 	0.5 	40.0071 	-0.136926 	-8.87634e-21
-0.25 	-0.984375 	0.5 	40.01 	-0.13816 	-3.7959e-20
-0.234375 	-0.984375 	0.5 	40.0128 	-0.139575 	-8.75657e-19
-0.21875 	-0.984375 	0.5 	40.0161 	-0.140169 	-6.42924e-19
-0.203125 	-0.984375 	0.5 	40.0198 	-0.140482 	2.72628e-19
-0.1875 	-0.984375 	0.5 	40.0226 	-0.140801 	5.69261e-19
-0.171875 	-0.984375 	0.5 	40.0259 	-0.141279 	-8.34332e-19
-0.15625 	-0.984375 	0.5 	40.0294 	-0.141769 	-5.60944e-19
-0.140625 	-0.984375 	0.5 	40.0328 	-0.142259 	-2.87557e-19
-0.125 	-0.984375 	0.5 	40.0361 	-0.142567 	-1.85596e-19
-0.109375 	-0.984375 	0.5 	40.0393 	-0.142679 	-1.7931e-19
-0.09375 	-0.984375 	0.5 	40.0425 	-0.142786 	-1.63953e-19
-0.078125 	-0.984375 	0.5 	40.0458 	-0.14283 	-1.96607e-19
-0.0625 	-0.984375 	0.5 	40.0492 	-0.142566 	-4.5267e-19
-0.046875 	-0.984375 	0.5 	40.0527 	-0.142296 	-5.54263e-19
-0.03125 	-0.984375 	0.5 	40.0561 	-0.141973 	6.30825e-19
-0.015625 	-0.984375 	0.5 	40.0598 	-0.141568 	3.72097e-19
0 	-0.984375 	0.5 	40.0635 	-0.140744 	1.90564e-19
0.015625 	-0.984375 	0.5 	40.0673 	-0.139698 	-7.77628e-19
0.03125 	-0.984375 	0.5 	40.0702 	-0.138885 	-1.10221e-20
0.046875 	-0.984375 	0.5 	40.0737 	-0.137859 	-2.64157e-20
0.0625 	-0.984375 	0.5 	40.0769 	-0.136137 	-2.7156e-20
0.078125 	-0.984375 	0.5 	40.0803 	-0.134689 	-4.99608e-20
0.09375 	-0.984375 	0.5 	40.0836 	-0.133629 	-1.32499e-19
0.109375 	-0.984375 	0.5 	40.0871 	-0.132054 	-8.00295e-20
0.125 	-0.984375 	0.5 	40.0902 	-0.130346 	-1.30413e-19
0.140625 	-0.984375 	0.5 	40.0935 	-0.128357 	-1.61475e-19
0.15625 	-0.984375 	0.5 	40.0966 	-0.126288 	-5.67616e-19
0.171875 	-0.984375 	0.5 	40.0996 	-0.124231 	-4.25128e-19
0.1875 	-0.984375 	0.5 	40.1028 	-0.122526 	5.56918e-19
0.203125 	-0.984375 	0.5 	40.1054 	-0.119332 	-4.97359e-20
0.21875 	-0.984375 	0.5 	40.1081 	-0.117129 	-1.61398e-19
0.234375 	-0.984375 	0.5 	40.1108 	-0.115164 	-1.69154e-19
0.25 	-0.984375 	0.5 	40.1135 	-0.112412 	-2.7173e-19
0.265625 	-0.984375 	0.5 	40.1161 	-0.109418 	-4.24256e-19
0.28125 	-0.984375 	0.5 	40.1182 	-0.106714 	2.74175e-19
0.296875 	-0.984375 	0.5 	40.1209 	-0.104046 	1.22704e-19
0.3125 	-0.984375 	0.5 	40.1227 	-0.101442 	1.8637e-19
0.328125 	-0.984375 	0.5 	40.1243 	-0.0983903 	-6.46998e-19
0.34375 	-0.984375 	0.5 	40.1266 	-0.0950771 	-2.72079e-19
0.359375 	-0.984375 	0.5 	40.1287 	-0.0917675 	-6.39691e-20
0.375 	-0.984375 	0.5 	40.1304 	-0.089079 	1.9913e-19
0.390625 	-0.984375 	0.5 	40.1319 	-0.0859461 	7.03445e-20
0.40625 	-0.984375 	0.5 	40.1337 	-0.0826114 	-1.40391e-19
0.421875 	-0.984375 	0.5 	40.1347 	-0.0793031 	-3.0895e-19
0.4375 	-0.984375 	0.5 	40.1359 	-0.0761327 	-2.03995e-19
0.453125 	-0.984375 	0.5 	40.1369 	-0.0727473 	3.54137e-19
0.46875 	-0.984375 	0.5 	40.1379 	-0.0697822 	-8.58421e-20
0.484375 	-0.984375 	0.5 	40.1389 	-0.0662778 	-1.07999e-19
0.5 	-0.984375 	0.5 	40.1398 	-0.0631417 	-2.15948e-19
0.515625 	-0.984375 	0.5 	40.1405 	-0.0596193 	-5.83043e-19
0.53125 	-0.984375 	0.5 	40.1409 	-0.056091 	-3.53372e-19
0.546875 	-0.984375 	0.5 	40.1413 	-0.0525626 	-1.23702e-19
0.5625 	-0.984375 	0.5 	40.1416 	-0.0492506 	4.45243e-19
0.578125 	-0.984375 	0.5 	40.1419 	-0.0460389 	8.24891e-19
0.59375 	-0.984375 	0.5 	40.1421 	-0.0429746 	6.74716e-19
0.609375 	-0.984375 	0.5 	40.1419 	-0.0400436 	3.69072e-19
0.625 	-0.984375 	0.5 	40.1417 	-0.0364533 	-4.9531e-19
0.640625 	-0.984375 	0.5 	40.1417 	-0.0333165 	-4.11446e-19
0.65625 	-0.984375 	0.5 	40.1416 	-0.0301728 	-1.66767e-19
0.671875 	-0.984375 	0.5 	40.1408 	-0.026845 	3.70119e-19
0.6875 	-0.984375 	0.5 	40.1405 	-0.0237049 	-3.58552e-20
0.703125 	-0.984375 	0.5 	40.1397 	-0.0204234 	3.27022e-20
0.71875 	-0.984375 	0.5 	40.1386 	-0.0174656 	7.25937e-19
0.734375 	-0.984375 	0.5 	40.1378 	-0.0148227 	-6.07677e-19
0.75 	-0.984375 	0.5 	40.1368 	-0.0119131 	-4.70511e-19
0.765625 	-0.984375 	0.5 	40.136 	-0.00880356 	-3.81737e-19
0.78125 	-0.984375 	0.5 	40.1347 	-0.00617548 	-1.43636e-19
0.796875 	-0.984375 	0.5 	40.1335 	-0.00353647 	3.53447e-21
0.8125 	-0.984375 	0.5 	40.1324 	-0.0009099 	1.4836e-19
0.828125 	-0.984375 	0.5 	40.1311 	0.0015622 	1.30335e-20
0.84375 	-0.984375 	0.5 	40.1297 	0.00407394 	-1.01552e-19
0.859375 	-0.984375 	0.5 	40.1281 	0.00693063 	7.91207e-19
0.875 	-0.984375 	0.5 	40.1266 	0.00918986 	1.05169e-18
0.890625 	-0.984375 	0.5 	40.1251 	0.0115041 	-5.09611e-19
0.90625 	-0.984375 	0.5 	40.1236 	0.0137119 	-1.59684e-20
0.921875 	-0.984375 	0.5 	40.1218 	0.0158753 	-6.47325e-20
0.9375 	-0.984375 	0.5 	40.1201 	0.0178339 	-5.76158e-20
0.953125 	-0.984375 	0.5 	40.1186 	0.0197813 	4.27819e-20
0.96875 	-0.984375 	0.5 	40.1167 	0.0213158 	7.1806e-21
0.984375 	-0.984375 	0.5 	40.1146 	0.0233848 	1.90349e-20
1 	-0.984375 	0.5 	40.1125 	0.0237074 	4.48279e-21
1.01562 	-0.984375 	0.5 	40.1104 	0.0274462 	-4.39788e-21
1.03125 	-0.984375 	0.5 	40.1088 	0.028331 	7.31904e-22
1.04688 	-0.984375 	0.5 	40.1072 	0.0294847 	-7.23369e-20
1.0625 	-0.984375 	0.5 	40.1051 	0.0313999 	-6.49806e-19
1.07812 	-0.984375 	0.5 	40.1028 	0.0323006 	-8.43996e-19
1.09375 	-0.984375 	0.5 	40.1007 	0.0339663 	1.37979e-19
1.10938 	-0.984375 	0.5 	40.0986 	0.0349584 	-5.45671e-20
1.125 	-0.984375 	0.5 	40.0966 	0.0360403 	1.32976e-20
1.14062 	-0.984375 	0.5 	40.0946 	0.0368774 	-3.79007e-19
1.15625 	-0.984375 	0.5 	40.0925 	0.0378604 	-1.77382e-19
1.17188 	-0.984375 	0.5 	40.0908 	0.0384712 	-1.27235e-19
1.1875 	-0.984375 	0.5 	40.0888 	0.0396269 	-2.10152e-19
1.20312 	-0.984375 	0.5 	40.0865 	0.0400446 	-5.21049e-20
1.21875 	-0.984375 	0.5 	40.0844 	0.0407194 	-1.4645e-19
1.23438 	-0.984375 	0.5 	40.0823 	0.0415108 	-1.94473e-19
1.25 	-0.984375 	0.5 	40.0805 	0.0418492 	-1.50251e-19
1.26562 	-0.984375 	0.5 	40.0787 	0.0419847 	-5.10381e-20
1.28125 	-0.984375 	0.5 	40.0769 	0.0422829 	-1.48397e-20
1.29688 	-0.984375 	0.5 	40.075 	0.0426622 	-1.88036e-19
1.3125 	-0.984375 	0.5 	40.0732 	0.0429758 	1.84905e-19
1.32812 	-0.984375 	0.5 	40.0712 	0.043262 	1.24998e-18
1.34375 	-0.984375 	0.5 	40.0693 	0.0428301 	2.42863e-19
1.35938 	-0.984375 	0.5 	40.0675 	0.0429945 	6.23591e-20
1.375 	-0.984375 	0.5 	40.0661 	0.0429011 	7.00931e-20
1.39062 	-0.984375 	0.5 	40.0642 	0.0431783 	1.95855e-21
1.40625 	-0.984375 	0.5 	40.0625 	0.0429521 	-2.67193e-20
1.42188 	-0.984375 	0.5 	40.0611 	0.0427174 	-8.4268e-19
1.4375 	-0.984375 	0.5 	40.0596 	0.042589 	-3.08446e-19
1.45312 	-0.984375 	0.5 	40.0579 	0.0421376 	8.32717e-19
1.46875 	-0.984375 	0.5 	40.0563 	0.0418043 	1.07694e-18
1.48438 	-0.984375 	0.5 	40.0549 	0.0417391 	3.47295e-19
-0.5 	-0.96875 	0.5 	39.9706 	-0.114405 	5.35557e-19
-0.484375 	-0.96875 	0.5 	39.9723 	-0.116473 	1.34345e-18
-0.46875 	-0.96875 	0.5 	39.974 	-0.118019 	9.8201e-19
-0.453125 	-0.96875 	0.5 	39.9757 	-0.119606 	2.76311e-20
-0.4375 	-0.96875 	0.5 	39.9778 	-0.12169 	5.46906e-19
-0.421875 	-0.96875 	0.5 	39.9801 	-0.12318 	-1.11602e-19
-0.40625 	-0.96875 	0.5 	39.9826 	-0.125028 	-4.02181e-19
-0.390625 	-0.96875 	0.5 	39.9847 	-0.126604 	1.1769e-18
-0.375 	-0.96875 	0.5 	39.987 	-0.128603 	1.52599e-20
-0.359375 	-0.96875 	0.5 	39.9894 	-0.130731 	-7.00021e-20
-0.34375 	-0.96875 	0.5 	39.992 	-0.132296 	1.22369e-20
-0.328125 	-0.96875 	0.5 	39.9947 	-0.133742 	8.09955e-20
-0.3125 	-0.96875 	0.5 	39.9975 	-0.135172 	1.58337e-19
-0.296875 	-0.96875 	0.5 	40.0003 	-0.136579 	1.55397e-19
-0.28125 	-0.96875 	0.5 	40.0031 	-0.138015 	1.36024e-19
-0.265625 	-0.96875 	0.5 	40.006 	-0.13945 	1.16652e-19
-0.25 	-0.96875 	0.5 	40.0089 	-0.140801 	-8.01048e-20
-0.234375 	-0.96875 	0.5 	40.012 	-0.140911 	-2.70132e-20
-0.21875 	-0.96875 	0.5 	40.0152 	-0.141664 	3.5218e-20
-0.203125 	-0.96875 	0.5 	40.0185 	-0.142418 	9.74492e-20
-0.1875 	-0.96875 	0.5 	40.0222 	-0.14394 	1.4054e-19
-0.171875 	-0.96875 	0.5 	40.0255 	-0.14487 	6.29634e-20
-0.15625 	-0.96875 	0.5 	40.0288 	-0.145665 	-3.27782e-20
-0.140625 	-0.96875 	0.5 	40.0322 	-0.146055 	-1.8308e-19
-0.125 	-0.96875 	0.5 	40.0357 	-0.146185 	-2.94415e-19
-0.109375 	-0.96875 	0.5 	40.0388 	-0.146575 	3.44842e-19
-0.09375 	-0.96875 	0.5 	40.0423 	-0.146971 	-2.28052e-20
-0.078125 	-0.96875 	0.5 	40.0462 	-0.146259 	-6.15962e-20
-0.0625 	-0.96875 	0.5 	40.0494 	-0.146063 	1.24105e-18
-0.046875 	-0.96875 	0.5 	40.0531 	-0.145727 	7.9469e-19
-0.03125 	-0.96875 	0.5 	40.0568 	-0.145253 	8.0468e-22
-0.015625 	-0.96875 	0.5 	40.0605 	-0.144778 	1.64673e-19
0 	-0.96875 	0.5 	40.0641 	-0.144409 	2.89751e-19
0.015625 	-0.96875 	0.5 	40.0679 	-0.143156 	-4.2151e-19
0.03125 	-0.96875 	0.5 	40.0714 	-0.142295 	-9.46719e-20
0.046875 	-0.96875 	0.5 	40.0748 	-0.141243 	-1.22214e-19
0.0625 	-0.96875 	0.5 	40.078 	-0.139993 	-2.06991e-19
0.078125 	-0.96875 	0.5 	40.0813 	-0.138597 	-2.37807e-19
0.09375 	-0.96875 	0.5 	40.0854 	-0.136588 	-2.18077e-19
0.109375 	-0.96875 	0.5 	40.0886 	-0.135118 	1.40477e-19
0.125 	-0.96875 	0.5 	40.0921 	-0.133545 	3.88007e-20
0.140625 	-0.96875 	0.5 	40.0953 	-0.131646 	6.85917e-21
0.15625 	-0.96875 	0.5 	40.0984 	-0.129614 	6.00651e-19
0.171875 	-0.96875 	0.5 	40.1015 	-0.127016 	-2.42746e-19
0.1875 	-0.96875 	0.5 	40.1044 	-0.124721 	-2.27715e-19
0.203125 	-0.96875 	0.5 	40.1074 	-0.12276 	-7.56695e-19
0.21875 	-0.96875 	0.5 	40.1104 	-0.120323 	-1.49832e-19
0.234375 	-0.96875 	0.5 	40.1133 	-0.117917 	-1.12763e-19
0.25 	-0.96875 	0.5 	40.1159 	-0.114925 	-1.61612e-19
0.265625 	-0.96875 	0.5 	40.1184 	-0.111816 	-3.43343e-19
0.28125 	-0.96875 	0.5 	40.1209 	-0.10902 	3.61408e-20
0.296875 	-0.96875 	0.5 	40.1235 	-0.106324 	-5.16505e-20
0.3125 	-0.96875 	0.5 	40.126 	-0.103507 	-9.26169e-20
0.328125 	-0.96875 	0.5 	40.1277 	-0.100439 	-1.71241e-20
0.34375 	-0.96875 	0.5 	40.1295 	-0.0972632 	-1.09446e-20
0.359375 	-0.96875 	0.5 	40.1318 	-0.0935546 	1.54842e-19
0.375 	-0.96875 	0.5 	40.1335 	-0.0901074 	4.30682e-19
0.390625 	-0.96875 	0.5 	40.1351 	-0.0870231 	1.16114e-20
0.40625 	-0.96875 	0.5 	40.1366 	-0.0838977 	-2.03914e-19
0.421875 	-0.96875 	0.5 	40.1379 	-0.0807226 	-1.85198e-19
0.4375 	-0.96875 	0.5 	40.1392 	-0.0775474 	-1.66482e-19
0.453125 	-0.96875 	0.5 	40.1403 	-0.0743841 	-3.60069e-21
0.46875 	-0.96875 	0.5 	40.1414 	-0.0706505 	-2.13217e-19
0.484375 	-0.96875 	0.5 	40.1424 	-0.0671185 	-1.94097e-19
0.5 	-0.96875 	0.5 	40.1433 	-0.0637698 	-2.92839e-19
0.515625 	-0.96875 	0.5 	40.144 	-0.0601531 	-2.60336e-19
0.53125 	-0.96875 	0.5 	40.1446 	-0.0562307 	-6.68355e-19
0.546875 	-0.96875 	0.5 	40.1449 	-0.0528199 	9.08397e-19
0.5625 	-0.96875 	0.5 	40.1448 	-0.049404 	-1.032e-18
0.578125 	-0.96875 	0.5 	40.145 	-0.0462706 	1.18383e-19
0.59375 	-0.96875 	0.5 	40.1452 	-0.0431945 	1.06858e-20
0.609375 	-0.96875 	0.5 	40.1451 	-0.0399568 	4.34572e-19
0.625 	-0.96875 	0.5 	40.1449 	-0.0361881 	-2.14765e-19
0.640625 	-0.96875 	0.5 	40.1448 	-0.0329398 	-7.07136e-20
0.65625 	-0.96875 	0.5 	40.1448 	-0.0300175 	-6.205e-20
0.671875 	-0.96875 	0.5 	40.1441 	-0.0262749 	3.11413e-20
0.6875 	-0.96875 	0.5 	40.1433 	-0.02285 	5.82311e-20
0.703125 	-0.96875 	0.5 	40.1424 	-0.0194786 	-2.35409e-20
0.71875 	-0.96875 	0.5 	40.1418 	-0.0167475 	1.19822e-19
0.734375 	-0.96875 	0.5 	40.1408 	-0.0135654 	-5.54561e-19
0.75 	-0.96875 	0.5 	40.1397 	-0.0106747 	-3.89372e-19
0.765625 	-0.96875 	0.5 	40.1387 	-0.00767761 	-4.89306e-19
0.78125 	-0.96875 	0.5 	40.1376 	-0.00508771 	-4.86081e-19
0.796875 	-0.96875 	0.5 	40.1365 	-0.00240255 	-3.16082e-19
0.8125 	-0.96875 	0.5 	40.1349 	0.000375172 	6.06774e-19
0.828125 	-0.96875 	0.5 	40.1335 	0.00291693 	-3.19398e-19
0.84375 	-0.96875 	0.5 	40.132 	0.0058076 	1.56531e-19
0.859375 	-0.96875 	0.5 	40.1306 	0.00837977 	3.87245e-19
0.875 	-0.96875 	0.5 	40.1291 	0.0106955 	2.53613e-19
0.890625 	-0.96875 	0.5 	40.1276 	0.0130446 	1.76537e-19
0.90625 	-0.96875 	0.5 	40.1256 	0.0152536 	5.51678e-19
0.921875 	-0.96875 	0.5 	40.1238 	0.0172747 	8.30156e-19
0.9375 	-0.96875 	0.5 	40.122 	0.0194443 	4.40572e-19
0.953125 	-0.96875 	0.5 	40.1201 	0.0216458 	-4.20326e-20
0.96875 	-0.96875 	0.5 	40.1177 	0.0236205 	6.05828e-20
0.984375 	-0.96875 	0.5 	40.1157 	0.0254974 	6.37591e-20
1 	-0.96875 	0.5 	40.1136 	0.0274906 	5.0224e-20
1.01562 	-0.96875 	0.5 	40.1119 	0.029689 	1.59294e-19
1.03125 	-0.96875 	0.5 	40.1101 	0.0310732 	-2.66779e-19
1.04688 	-0.96875 	0.5 	40.1084 	0.0325842 	-3.36131e-19
1.0625 	-0.96875 	0.5 	40.1064 	0.0340233 	-4.09406e-19
1.07812 	-0.96875 	0.5 	40.1041 	0.0353983 	-9.1658e-19
1.09375 	-0.96875 	0.5 	40.1018 	0.0362473 	1.24242e-19
1.10938 	-0.96875 	0.5 	40.0997 	0.0371348 	-4.22482e-20
1.125 	-0.96875 	0.5 	40.0976 	0.038159 	3.86975e-20
1.14062 	-0.96875 	0.5 	40.0956 	0.0390088 	-3.23911e-19
1.15625 	-0.96875 	0.5 	40.0935 	0.0399113 	-3.20606e-19
1.17188 	-0.96875 	0.5 	40.0914 	0.0408165 	-3.10575e-19
1.1875 	-0.96875 	0.5 	40.0893 	0.0415352 	-2.30997e-19
1.20312 	-0.96875 	0.5 	40.0871 	0.0421125 	-2.29688e-19
1.21875 	-0.96875 	0.5 	40.0849 	0.0426898 	-2.28379e-19
1.23438 	-0.96875 	0.5 	40.0828 	0.0433499 	-3.08299e-19
1.25 	-0.96875 	0.5 	40.0809 	0.0436936 	-2.33479e-19
1.26562 	-0.96875 	0.5 	40.079 	0.0440047 	-2.05948e-19
1.28125 	-0.96875 	0.5 	40.0772 	0.0443457 	-1.68641e-19
1.29688 	-0.96875 	0.5 	40.0752 	0.0447897 	-7.17109e-20
1.3125 	-0.96875 	0.5 	40.0733 	0.0445899 	-7.17485e-20
1.32812 	-0.96875 	0.5 	40.0713 	0.0445895 	2.97921e-19
1.34375 	-0.96875 	0.5 	40.0694 	0.0446375 	6.75724e-19
1.35938 	-0.96875 	0.5 	40.0676 	0.0444842 	1.14871e-19
1.375 	-0.96875 	0.5 	40.0659 	0.0446571 	6.5547e-20
1.39062 	-0.96875 	0.5 	40.0641 	0.0446502 	1.96769e-20
1.40625 	-0.96875 	0.5 	40.0624 	0.0446256 	-2.47985e-20
1.42188 	-0.96875 	0.5 	40.0608 	0.0443792 	-4.80849e-19
1.4375 	-0.96875 	0.5 	40.0592 	0.0439445 	6.63658e-19
1.45312 	-0.96875 	0.5 	40.0575 	0.0434861 	1.20239e-18
1.46875 	-0.96875 	0.5 	40.0559 	0.0432844 	1.13679e-18
1.48438 	-0.96875 	0.5 	40.0545 	0.0432601 	3.69159e-19
-0.5 	-0.953125 	0.5 	39.9686 	-0.11575 	6.3548e-19
-0.484375 	-0.953125 	0.5 	39.9702 	-0.118205 	7.57797e-19
-0.46875 	-0.953125 	0.5 	39.9721 	-0.119924 	-6.36467e-19
-0.453125 	-0.953125 	0.5 	39.9739 	-0.121754 	-1.52253e-18
-0.4375 	-0.953125 	0.5 	39.9759 	-0.123975 	5.60227e-19
-0.421875 	-0.953125 	0.5 	39.9784 	-0.125841 	1.00715e-18
-0.40625 	-0.953125 	0.5 	39.9804 	-0.126961 	1.35892e-19
-0.390625 	-0.953125 	0.5 	39.9827 	-0.128803 	7.96876e-20
-0.375 	-0.953125 	0.5 	39.9848 	-0.131553 	-8.51581e-19
-0.359375 	-0.953125 	0.5 	39.9876 	-0.133158 	-1.12311e-19
-0.34375 	-0.953125 	0.5 	39.9901 	-0.134828 	-1.81308e-20
-0.328125 	-0.953125 	0.5 	39.993 	-0.136277 	1.13915e-20
-0.3125 	-0.953125 	0.5 	39.9957 	-0.138206 	-5.26185e-20
-0.296875 	-0.953125 	0.5 	39.9985 	-0.139966 	2.77633e-20
-0.28125 	-0.953125 	0.5 	40.0014 	-0.140976 	2.51921e-19
-0.265625 	-0.953125 	0.5 	40.0046 	-0.142601 	-5.49965e-20
-0.25 	-0.953125 	0.5 	40.0079 	-0.143646 	-6.91451e-20
-0.234375 	-0.953125 	0.5 	40.0111 	-0.144914 	-1.01791e-19
-0.21875 	-0.953125 	0.5 	40.0141 	-0.144863 	-5.0966e-20
-0.203125 	-0.953125 	0.5 	40.0181 	-0.146684 	3.37734e-19
-0.1875 	-0.953125 	0.5 	40.0213 	-0.147562 	3.36021e-19
-0.171875 	-0.953125 	0.5 	40.0249 	-0.148299 	1.26843e-19
-0.15625 	-0.953125 	0.5 	40.0282 	-0.149256 	-2.6947e-20
-0.140625 	-0.953125 	0.5 	40.0316 	-0.149671 	-1.7379e-19
-0.125 	-0.953125 	0.5 	40.035 	-0.149546 	-3.51658e-19
-0.109375 	-0.953125 	0.5 	40.0388 	-0.150847 	-2.67473e-20
-0.09375 	-0.953125 	0.5 	40.0425 	-0.150436 	1.98014e-20
-0.078125 	-0.953125 	0.5 	40.0463 	-0.149657 	-7.32489e-22
-0.0625 	-0.953125 	0.5 	40.05 	-0.149477 	7.55127e-19
-0.046875 	-0.953125 	0.5 	40.0534 	-0.149531 	-2.6874e-19
-0.03125 	-0.953125 	0.5 	40.0567 	-0.14945 	-2.44834e-19
-0.015625 	-0.953125 	0.5 	40.0608 	-0.148358 	-4.7742e-19
0 	-0.953125 	0.5 	40.0645 	-0.147689 	-2.69102e-19
0.015625 	-0.953125 	0.5 	40.0688 	-0.146737 	-1.53478e-19
0.03125 	-0.953125 	0.5 	40.0722 	-0.145333 	-9.5339e-19
0.046875 	-0.953125 	0.5 	40.0757 	-0.14428 	-9.58387e-19
0.0625 	-0.953125 	0.5 	40.079 	-0.143544 	-4.12795e-19
0.078125 	-0.953125 	0.5 	40.0829 	-0.141997 	-2.25045e-19
0.09375 	-0.953125 	0.5 	40.0868 	-0.140119 	-1.74445e-19
0.109375 	-0.953125 	0.5 	40.0902 	-0.138609 	1.21468e-19
0.125 	-0.953125 	0.5 	40.0936 	-0.136765 	1.67694e-19
0.140625 	-0.953125 	0.5 	40.0971 	-0.134953 	1.56987e-19
0.15625 	-0.953125 	0.5 	40.1004 	-0.13285 	6.0701e-20
0.171875 	-0.953125 	0.5 	40.1036 	-0.130382 	-1.06914e-20
0.1875 	-0.953125 	0.5 	40.1069 	-0.127454 	2.2321e-19
0.203125 	-0.953125 	0.5 	40.1099 	-0.125356 	-8.95806e-20
0.21875 	-0.953125 	0.5 	40.113 	-0.12313 	-1.24581e-19
0.234375 	-0.953125 	0.5 	40.1157 	-0.120274 	-1.52903e-19
0.25 	-0.953125 	0.5 	40.1183 	-0.117263 	-3.53465e-19
0.265625 	-0.953125 	0.5 	40.1211 	-0.114361 	-2.67258e-19
0.28125 	-0.953125 	0.5 	40.1241 	-0.111546 	-1.00519e-18
0.296875 	-0.953125 	0.5 	40.1266 	-0.108843 	-3.691e-19
0.3125 	-0.953125 	0.5 	40.1289 	-0.105638 	2.60296e-19
0.328125 	-0.953125 	0.5 	40.1304 	-0.10235 	-4.92839e-19
0.34375 	-0.953125 	0.5 	40.1329 	-0.0988434 	-4.73781e-20
0.359375 	-0.953125 	0.5 	40.1348 	-0.0954624 	1.4253e-19
0.375 	-0.953125 	0.5 	40.1366 	-0.0919602 	-2.59792e-19
0.390625 	-0.953125 	0.5 	40.1385 	-0.0885446 	-3.24836e-19
0.40625 	-0.953125 	0.5 	40.1399 	-0.0853319 	-5.56361e-20
0.421875 	-0.953125 	0.5 	40.1416 	-0.0821919 	-1.41452e-20
0.4375 	-0.953125 	0.5 	40.1428 	-0.0790152 	-1.46292e-20
0.453125 	-0.953125 	0.5 	40.144 	-0.075436 	1.31642e-21
0.46875 	-0.953125 	0.5 	40.1449 	-0.0713281 	3.05092e-19
0.484375 	-0.953125 	0.5 	40.146 	-0.0679315 	-2.27335e-19
0.5 	-0.953125 	0.5 	40.1467 	-0.0643402 	-2.51917e-19
0.515625 	-0.953125 	0.5 	40.1474 	-0.0606602 	6.23095e-21
0.53125 	-0.953125 	0.5 	40.1479 	-0.0570025 	3.73187e-19
0.546875 	-0.953125 	0.5 	40.1485 	-0.0535199 	3.65523e-19
0.5625 	-0.953125 	0.5 	40.1486 	-0.050163 	-3.14046e-19
0.578125 	-0.953125 	0.5 	40.1485 	-0.0466814 	-3.23585e-19
0.59375 	-0.953125 	0.5 	40.1485 	-0.0430235 	-1.87686e-19
0.609375 	-0.953125 	0.5 	40.1483 	-0.0394441 	-4.06139e-19
0.625 	-0.953125 	0.5 	40.1482 	-0.035679 	2.31728e-19
0.640625 	-0.953125 	0.5 	40.1481 	-0.0329468 	9.02656e-20
0.65625 	-0.953125 	0.5 	40.148 	-0.0299486 	1.01611e-19
0.671875 	-0.953125 	0.5 	40.1473 	-0.0261371 	1.48527e-19
0.6875 	-0.953125 	0.5 	40.147 	-0.0223005 	6.23182e-20
0.703125 	-0.953125 	0.5 	40.1461 	-0.0190135 	-1.20861e-20
0.71875 	-0.953125 	0.5 	40.1447 	-0.0157676 	-8.89248e-20
0.734375 	-0.953125 	0.5 	40.1436 	-0.0126868 	-7.22767e-21
0.75 	-0.953125 	0.5 	40.1426 	-0.009646 	-1.42107e-19
0.765625 	-0.953125 	0.5 	40.1417 	-0.00665851 	-5.90714e-19
0.78125 	-0.953125 	0.5 	40.1404 	-0.00366494 	-4.01281e-19
0.796875 	-0.953125 	0.5 	40.1391 	-0.000906508 	-1.03003e-19
0.8125 	-0.953125 	0.5 	40.1375 	0.00170351 	1.10301e-18
0.828125 	-0.953125 	0.5 	40.1363 	0.00465281 	-4.7667e-20
0.84375 	-0.953125 	0.5 	40.1348 	0.00740875 	2.09012e-19
0.859375 	-0.953125 	0.5 	40.1332 	0.0100862 	1.19599e-19
0.875 	-0.953125 	0.5 	40.1315 	0.0123129 	2.32783e-19
0.890625 	-0.953125 	0.5 	40.1297 	0.0147964 	-2.02198e-19
0.90625 	-0.953125 	0.5 	40.1277 	0.0172204 	-2.09147e-19
0.921875 	-0.953125 	0.5 	40.1257 	0.0192022 	8.09842e-19
0.9375 	-0.953125 	0.5 	40.1239 	0.021544 	-2.0919e-19
0.953125 	-0.953125 	0.5 	40.1217 	0.0237069 	-2.05561e-19
0.96875 	-0.953125 	0.5 	40.1195 	0.0253686 	-4.77557e-19
0.984375 	-0.953125 	0.5 	40.1173 	0.0277523 	1.02698e-19
1 	-0.953125 	0.5 	40.1152 	0.0298492 	2.61106e-19
1.01562 	-0.953125 	0.5 	40.1134 	0.0318418 	2.87326e-19
1.03125 	-0.953125 	0.5 	40.1116 	0.0331208 	-3.52074e-19
1.04688 	-0.953125 	0.5 	40.1099 	0.0345897 	8.20026e-20
1.0625 	-0.953125 	0.5 	40.1077 	0.0360581 	6.90121e-19
1.07812 	-0.953125 	0.5 	40.1054 	0.0373122 	-2.98244e-19
1.09375 	-0.953125 	0.5 	40.103 	0.038561 	4.04655e-19
1.10938 	-0.953125 	0.5 	40.1009 	0.0394442 	2.20775e-19
1.125 	-0.953125 	0.5 	40.0987 	0.040323 	7.16363e-20
1.14062 	-0.953125 	0.5 	40.0964 	0.0412903 	1.31078e-19
1.15625 	-0.953125 	0.5 	40.0941 	0.0421882 	1.5097e-19
1.17188 	-0.953125 	0.5 	40.0921 	0.0429802 	-7.45328e-20
1.1875 	-0.953125 	0.5 	40.0899 	0.0437833 	-4.93868e-19
1.20312 	-0.953125 	0.5 	40.0881 	0.0441758 	-2.06702e-18
1.21875 	-0.953125 	0.5 	40.0858 	0.0447915 	-1.57427e-18
1.23438 	-0.953125 	0.5 	40.0833 	0.0453619 	-1.52217e-19
1.25 	-0.953125 	0.5 	40.081 	0.0457113 	-2.35029e-19
1.26562 	-0.953125 	0.5 	40.0791 	0.0465192 	-1.18266e-19
1.28125 	-0.953125 	0.5 	40.0772 	0.0470503 	-1.65878e-20
1.29688 	-0.953125 	0.5 	40.0752 	0.0467256 	3.84545e-20
1.3125 	-0.953125 	0.5 	40.0734 	0.0466527 	-3.52812e-19
1.32812 	-0.953125 	0.5 	40.0715 	0.0464923 	-2.82455e-19
1.34375 	-0.953125 	0.5 	40.0695 	0.0462643 	1.48607e-20
1.35938 	-0.953125 	0.5 	40.0675 	0.0461435 	1.19865e-19
1.375 	-0.953125 	0.5 	40.0657 	0.0461635 	7.01747e-20
1.39062 	-0.953125 	0.5 	40.064 	0.0461826 	2.089e-20
1.40625 	-0.953125 	0.5 	40.0622 	0.0462016 	-2.83947e-20
1.42188 	-0.953125 	0.5 	40.0604 	0.046026 	-3.99556e-20
1.4375 	-0.953125 	0.5 	40.0588 	0.0457131 	9.13101e-20
1.45312 	-0.953125 	0.5 	40.0573 	0.0454017 	2.41911e-19
1.46875 	-0.953125 	0.5 	40.0556 	0.0450527 	5.17836e-19
1.48438 	-0.953125 	0.5 	40.0541 	0.0447834 	4.33641e-19
-0.5 	-0.9375 	0.5 	39.9662 	-0.117942 	2.12831e-19
-0.484375 	-0.9375 	0.5 	39.968 	-0.120039 	7.71812e-19
-0.46875 	-0.9375 	0.5 	39.97 	-0.122206 	6.00771e-19
-0.453125 	-0.9375 	0.5 	39.9719 	-0.124073 	-7.25017e-19
-0.4375 	-0.9375 	0.5 	39.974 	-0.12626 	5.73549e-19
-0.421875 	-0.9375 	0.5 	39.9762 	-0.127634 	1.5629e-19
-0.40625 	-0.9375 	0.5 	39.9784 	-0.129587 	-1.00321e-19
-0.390625 	-0.9375 	0.5 	39.9807 	-0.131442 	6.68047e-20
-0.375 	-0.9375 	0.5 	39.9833 	-0.133535 	-2.42284e-19
-0.359375 	-0.9375 	0.5 	39.9859 	-0.135585 	-1.54621e-19
-0.34375 	-0.9375 	0.5 	39.9886 	-0.137263 	-1.11106e-19
-0.328125 	-0.9375 	0.5 	39.9913 	-0.139452 	-1.06652e-19
-0.3125 	-0.9375 	0.5 	39.9938 	-0.141259 	-1.85265e-19
-0.296875 	-0.9375 	0.5 	39.9967 	-0.142878 	-2.28039e-19
-0.28125 	-0.9375 	0.5 	39.9996 	-0.144703 	-1.01376e-19
-0.265625 	-0.9375 	0.5 	40.0037 	-0.145295 	-4.42734e-20
-0.25 	-0.9375 	0.5 	40.0068 	-0.146858 	-1.29245e-19
-0.234375 	-0.9375 	0.5 	40.0101 	-0.147638 	-8.13719e-20
-0.21875 	-0.9375 	0.5 	40.0134 	-0.149263 	-2.4931e-20
-0.203125 	-0.9375 	0.5 	40.0177 	-0.150402 	8.20609e-19
-0.1875 	-0.9375 	0.5 	40.0202 	-0.151168 	3.08634e-19
-0.171875 	-0.9375 	0.5 	40.0244 	-0.151971 	6.02173e-19
-0.15625 	-0.9375 	0.5 	40.0277 	-0.152673 	1.30577e-19
-0.140625 	-0.9375 	0.5 	40.031 	-0.153179 	-1.8433e-19
-0.125 	-0.9375 	0.5 	40.0349 	-0.154134 	-3.34287e-19
-0.109375 	-0.9375 	0.5 	40.0388 	-0.154847 	-5.00923e-19