-0.5 	-1 	0.5 	-7.31681
-0.484375 	-1 	0.5 	-7.25246
-0.46875 	-1 	0.5 	-7.18801
-0.453125 	-1 	0.5 	-7.08323
-0.4375 	-1 	0.5 	-7.07281
-0.421875 	-1 	0.5 	-7.044
-0.40625 	-1 	0.5 	-7.05524
-0.390625 	-1 	0.5 	-7.05353
-0.375 	-1 	0.5 	-7.03972
-0.359375 	-1 	0.5 	-7.02449
-0.34375 	-1 	0.5 	-7.02551
-0.328125 	-1 	0.5 	-7.04671
-0.3125 	-1 	0.5 	-7.07139
-0.296875 	-1 	0.5 	-7.10565
-0.28125 	-1 	0.5 	-7.13211
-0.265625 	-1 	0.5 	-7.18036
-0.25 	-1 	0.5 	-7.23337
-0.234375 	-1 	0.5 	-7.33455
-0.21875 	-1 	0.5 	-7.35441
-0.203125 	-1 	0.5 	-7.44684
-0.1875 	-1 	0.5 	-7.50196
-0.171875 	-1 	0.5 	-7.58722
-0.15625 	-1 	0.5 	-7.67836
-0.140625 	-1 	0.5 	-7.78474
-0.125 	-1 	0.5 	-7.87967
-0.109375 	-1 	0.5 	-7.97634
-0.09375 	-1 	0.5 	-8.06312
-0.078125 	-1 	0.5 	-8.16101
-0.0625 	-1 	0.5 	-8.28142
-0.046875 	-1 	0.5 	-8.41081
-0.03125 	-1 	0.5 	-8.52189
-0.015625 	-1 	0.5 	-8.64349
0 	-1 	0.5 	-8.75744
0.015625 	-1 	0.5 	-8.86184
0.03125 	-1 	0.5 	-8.96983
0.046875 	-1 	0.5 	-9.08172
0.0625 	-1 	0.5 	-9.18696
0.078125 	-1 	0.5 	-9.28942
0.09375 	-1 	0.5 	-9.39102
0.109375 	-1 	0.5 	-9.4896
0.125 	-1 	0.5 	-9.58613
0.140625 	-1 	0.5 	-9.65755
0.15625 	-1 	0.5 	-9.72751
0.171875 	-1 	0.5 	-9.81365
0.1875 	-1 	0.5 	-9.87571
0.203125 	-1 	0.5 	-9.93447
0.21875 	-1 	0.5 	-9.97615
0.234375 	-1 	0.5 	-10.0216
0.25 	-1 	0.5 	-10.0545
0.265625 	-1 	0.5 	-10.0681
0.28125 	-1 	0.5 	-10.0892
0.296875 	-1 	0.5 	-10.0968
0.3125 	-1 	0.5 	-10.0892
0.328125 	-1 	0.5 	-10.0712
0.34375 	-1 	0.5 	-10.054
0.359375 	-1 	0.5 	-10.0112
0.375 	-1 	0.5 	-9.97791
0.390625 	-1 	0.5 	-9.90889
0.40625 	-1 	0.5 	-9.8473
0.421875 	-1 	0.5 	-9.78637
0.4375 	-1 	0.5 	-9.69565
0.453125 	-1 	0.5 	-9.60999
0.46875 	-1 	0.5 	-9.5111
0.484375 	-1 	0.5 	-9.40638
0.5 	-1 	0.5 	-9.29817
0.515625 	-1 	0.5 	-9.19275
0.53125 	-1 	0.5 	-9.03546
0.546875 	-1 	0.5 	-8.91522
0.5625 	-1 	0.5 	-8.76776
0.578125 	-1 	0.5 	-8.63813
0.59375 	-1 	0.5 	-8.50297
0.609375 	-1 	0.5 	-8.33682
0.625 	-1 	0.5 	-8.18857
0.640625 	-1 	0.5 	-8.08536
0.65625 	-1 	0.5 	-7.93565
0.671875 	-1 	0.5 	-7.78375
0.6875 	-1 	0.5 	-7.59886
0.703125 	-1 	0.5 	-7.42214
0.71875 	-1 	0.5 	-7.27184
0.734375 	-1 	0.5 	-7.11891
0.75 	-1 	0.5 	-6.95269
0.765625 	-1 	0.5 	-6.82908
0.78125 	-1 	0.5 	-6.70744
0.796875 	-1 	0.5 	-6.63673
0.8125 	-1 	0.5 	-6.53125
0.828125 	-1 	0.5 	-6.32464
0.84375 	-1 	0.5 	-6.1434
0.859375 	-1 	0.5 	-6.05187
0.875 	-1 	0.5 	-5.96774
0.890625 	-1 	0.5 	-5.84795
0.90625 	-1 	0.5 	-5.74854
0.921875 	-1 	0.5 	-5.66989
0.9375 	-1 	0.5 	-5.56658
0.953125 	-1 	0.5 	-5.48906
0.96875 	-1 	0.5 	-5.43322
0.984375 	-1 	0.5 	-5.39183
1 	-1 	0.5 	-5.33888
1.01562 	-1 	0.5 	-5.28106
1.03125 	-1 	0.5 	-5.24589
1.04688 	-1 	0.5 	-5.21992
1.0625 	-1 	0.5 	-5.19395
1.07812 	-1 	0.5 	-5.17535
1.09375 	-1 	0.5 	-5.18555
1.10938 	-1 	0.5 	-5.20627
1.125 	-1 	0.5 	-5.2013
1.14062 	-1 	0.5 	-5.2472
1.15625 	-1 	0.5 	-5.26982
1.17188 	-1 	0.5 	-5.28555
1.1875 	-1 	0.5 	-5.32413
1.20312 	-1 	0.5 	-5.39005
1.21875 	-1 	0.5 	-5.46239
1.23438 	-1 	0.5 	-5.64986
1.25 	-1 	0.5 	-5.69341
1.26562 	-1 	0.5 	-5.77581
1.28125 	-1 	0.5 	-5.71921
1.29688 	-1 	0.5 	-5.88402
1.3125 	-1 	0.5 	-5.91294
1.32812 	-1 	0.5 	-6.13067
1.34375 	-1 	0.5 	-6.3092
1.35938 	-1 	0.5 	-6.38976
1.375 	-1 	0.5 	-6.54302
1.39062 	-1 	0.5 	-6.70598
1.40625 	-1 	0.5 	-6.82897
1.42188 	-1 	0.5 	-6.96234
1.4375 	-1 	0.5 	-7.01005
1.45312 	-1 	0.5 	-7.09978
1.46875 	-1 	0.5 	-7.31845
1.48438 	-1 	0.5 	-7.52844
-0.5 	-0.984375 	0.5 	-7.11139
-0.484375 	-0.984375 	0.5 	-7.0494
-0.46875 	-0.984375 	0.5 	-6.98163
-0.453125 	-0.984375 	0.5 	-6.91534
-0.4375 	-0.984375 	0.5 	-6.88607
-0.421875 	-0.984375 	0.5 	-6.86975
-0.40625 	-0.984375 	0.5 	-6.85925
-0.390625 	-0.984375 	0.5 	-6.86169
-0.375 	-0.984375 	0.5 	-6.83926
-0.359375 	-0.984375 	0.5 	-6.82508
-0.34375 	-0.984375 	0.5 	-6.82502
-0.328125 	-0.984375 	0.5 	-6.84496
-0.3125 	-0.984375 	0.5 	-6.86702
-0.296875 	-0.984375 	0.5 	-6.91398
-0.28125 	-0.984375 	0.5 	-6.94231
-0.265625 	-0.984375 	0.5 	-7.01463
-0.25 	-0.984375 	0.5 	-7.0658
-0.234375 	-0.984375 	0.5 	-7.11637
-0.21875 	-0.984375 	0.5 	-7.21873
-0.203125 	-0.984375 	0.5 	-7.2999
-0.1875 	-0.984375 	0.5 	-7.35728
-0.171875 	-0.984375 	0.5 	-7.44481
-0.15625 	-0.984375 	0.5 	-7.53735
-0.140625 	-0.984375 	0.5 	-7.64889
-0.125 	-0.984375 	0.5 	-7.73732
-0.109375 	-0.984375 	0.5 	-7.86234
-0.09375 	-0.984375 	0.5 	-7.98895
-0.078125 	-0.984375 	0.5 	-8.07999
-0.0625 	-0.984375 	0.5 	-8.20021
-0.046875 	-0.984375 	0.5 	-8.30028
-0.03125 	-0.984375 	0.5 	-8.45582
-0.015625 	-0.984375 	0.5 	-8.59469
0 	-0.984375 	0.5 	-8.6922
0.015625 	-0.984375 	0.5 	-8.82259
0.03125 	-0.984375 	0.5 	-8.93058
0.046875 	-0.984375 	0.5 	-9.05584
0.0625 	-0.984375 	0.5 	-9.17278
0.078125 	-0.984375 	0.5 	-9.27873
0.09375 	-0.984375 	0.5 	-9.39959
0.109375 	-0.984375 	0.5 	-9.50456
0.125 	-0.984375 	0.5 	-9.59263
0.140625 	-0.984375 	0.5 	-9.6851
0.15625 	-0.984375 	0.5 	-9.76921
0.171875 	-0.984375 	0.5 	-9.84795
0.1875 	-0.984375 	0.5 	-9.91644
0.203125 	-0.984375 	0.5 	-9.99608
0.21875 	-0.984375 	0.5 	-10.0396
0.234375 	-0.984375 	0.5 	-10.0795
0.25 	-0.984375 	0.5 	-10.1145
0.265625 	-0.984375 	0.5 	-10.1264
0.28125 	-0.984375 	0.5 	-10.1467
0.296875 	-0.984375 	0.5 	-10.1521
0.3125 	-0.984375 	0.5 	-10.1489
0.328125 	-0.984375 	0.5 	-10.146
0.34375 	-0.984375 	0.5 	-10.1449
0.359375 	-0.984375 	0.5 	-10.1011
0.375 	-0.984375 	0.5 	-10.0512
0.390625 	-0.984375 	0.5 	-9.9743
0.40625 	-0.984375 	0.5 	-9.90374
0.421875 	-0.984375 	0.5 	-9.82113
0.4375 	-0.984375 	0.5 	-9.75055
0.453125 	-0.984375 	0.5 	-9.65727
0.46875 	-0.984375 	0.5 	-9.54818
0.484375 	-0.984375 	0.5 	-9.44262
0.5 	-0.984375 	0.5 	-9.32309
0.515625 	-0.984375 	0.5 	-9.25938
0.53125 	-0.984375 	0.5 	-9.06554
0.546875 	-0.984375 	0.5 	-8.91542
0.5625 	-0.984375 	0.5 	-8.76714
0.578125 	-0.984375 	0.5 	-8.63286
0.59375 	-0.984375 	0.5 	-8.47021
0.609375 	-0.984375 	0.5 	-8.30553
0.625 	-0.984375 	0.5 	-8.12863
0.640625 	-0.984375 	0.5 	-8.03273
0.65625 	-0.984375 	0.5 	-7.85591
0.671875 	-0.984375 	0.5 	-7.67681
0.6875 	-0.984375 	0.5 	-7.47556
0.703125 	-0.984375 	0.5 	-7.34054
0.71875 	-0.984375 	0.5 	-7.16974
0.734375 	-0.984375 	0.5 	-7.02114
0.75 	-0.984375 	0.5 	-6.85647
0.765625 	-0.984375 	0.5 	-6.75051
0.78125 	-0.984375 	0.5 	-6.57233
0.796875 	-0.984375 	0.5 	-6.41377
0.8125 	-0.984375 	0.5 	-6.31688
0.828125 	-0.984375 	0.5 	-6.06566
0.84375 	-0.984375 	0.5 	-5.98456
0.859375 	-0.984375 	0.5 	-5.86002
0.875 	-0.984375 	0.5 	-5.73362
0.890625 	-0.984375 	0.5 	-5.65396
0.90625 	-0.984375 	0.5 	-5.5229
0.921875 	-0.984375 	0.5 	-5.43718
0.9375 	-0.984375 	0.5 	-5.34803
0.953125 	-0.984375 	0.5 	-5.29086
0.96875 	-0.984375 	0.5 	-5.20474
0.984375 	-0.984375 	0.5 	-5.14358
1 	-0.984375 	0.5 	-5.05967
1.01562 	-0.984375 	0.5 	-5.03599
1.03125 	-0.984375 	0.5 	-5.00583
1.04688 	-0.984375 	0.5 	-4.97605
1.0625 	-0.984375 	0.5 	-4.9603
1.07812 	-0.984375 	0.5 	-4.91892
1.09375 	-0.984375 	0.5 	-4.92607
1.10938 	-0.984375 	0.5 	-4.95089
1.125 	-0.984375 	0.5 	-4.98458
1.14062 	-0.984375 	0.5 	-5.01155
1.15625 	-0.984375 	0.5 	-5.01047
1.17188 	-0.984375 	0.5 	-5.02145
1.1875 	-0.984375 	0.5 	-5.02532
1.20312 	-0.984375 	0.5 	-5.11288
1.21875 	-0.984375 	0.5 	-5.19024
1.23438 	-0.984375 	0.5 	-5.35744
1.25 	-0.984375 	0.5 	-5.47237
1.26562 	-0.984375 	0.5 	-5.52722
1.28125 	-0.984375 	0.5 	-5.58135
1.29688 	-0.984375 	0.5 	-5.66217
1.3125 	-0.984375 	0.5 	-5.7675
1.32812 	-0.984375 	0.5 	-5.92866
1.34375 	-0.984375 	0.5 	-6.05674
1.35938 	-0.984375 	0.5 	-6.17584
1.375 	-0.984375 	0.5 	-6.29459
1.39062 	-0.984375 	0.5 	-6.45704
1.40625 	-0.984375 	0.5 	-6.62487
1.42188 	-0.984375 	0.5 	-6.77105
1.4375 	-0.984375 	0.5 	-6.90305
1.45312 	-0.984375 	0.5 	-7.05548
1.46875 	-0.984375 	0.5 	-7.19661
1.48438 	-0.984375 	0.5 	-7.36786
-0.5 	-0.96875 	0.5 	-6.8883
-0.484375 	-0.96875 	0.5 	-6.8497
-0.46875 	-0.96875 	0.5 	-6.7724
-0.453125 	-0.96875 	0.5 	-6.70932
-0.4375 	-0.96875 	0.5 	-6.66903
-0.421875 	-0.96875 	0.5 	-6.6634
-0.40625 	-0.96875 	0.5 	-6.66471
-0.390625 	-0.96875 	0.5 	-6.6603
-0.375 	-0.96875 	0.5 	-6.65037
-0.359375 	-0.96875 	0.5 	-6.64045
-0.34375 	-0.96875 	0.5 	-6.62604
-0.328125 	-0.96875 	0.5 	-6.65179
-0.3125 	-0.96875 	0.5 	-6.68547
-0.296875 	-0.96875 	0.5 	-6.71801
-0.28125 	-0.96875 	0.5 	-6.76097
-0.265625 	-0.96875 	0.5 	-6.81641
-0.25 	-0.96875 	0.5 	-6.87185
-0.234375 	-0.96875 	0.5 	-6.93421
-0.21875 	-0.96875 	0.5 	-7.04204
-0.203125 	-0.96875 	0.5 	-7.12879
-0.1875 	-0.96875 	0.5 	-7.21607
-0.171875 	-0.96875 	0.5 	-7.30694
-0.15625 	-0.96875 	0.5 	-7.39699
-0.140625 	-0.96875 	0.5 	-7.49672
-0.125 	-0.96875 	0.5 	-7.62047
-0.109375 	-0.96875 	0.5 	-7.74359
-0.09375 	-0.96875 	0.5 	-7.88148
-0.078125 	-0.96875 	0.5 	-7.9826
-0.0625 	-0.96875 	0.5 	-8.1169
-0.046875 	-0.96875 	0.5 	-8.24088
-0.03125 	-0.96875 	0.5 	-8.38361
-0.015625 	-0.96875 	0.5 	-8.51628
0 	-0.96875 	0.5 	-8.63798
0.015625 	-0.96875 	0.5 	-8.77091
0.03125 	-0.96875 	0.5 	-8.89905
0.046875 	-0.96875 	0.5 	-9.02995
0.0625 	-0.96875 	0.5 	-9.16029
0.078125 	-0.96875 	0.5 	-9.27944
0.09375 	-0.96875 	0.5 	-9.39859
0.109375 	-0.96875 	0.5 	-9.50515
0.125 	-0.96875 	0.5 	-9.60374
0.140625 	-0.96875 	0.5 	-9.7149
0.15625 	-0.96875 	0.5 	-9.79723
0.171875 	-0.96875 	0.5 	-9.90343
0.1875 	-0.96875 	0.5 	-9.98491
0.203125 	-0.96875 	0.5 	-10.0555
0.21875 	-0.96875 	0.5 	-10.1042
0.234375 	-0.96875 	0.5 	-10.1573
0.25 	-0.96875 	0.5 	-10.1913
0.265625 	-0.96875 	0.5 	-10.206
0.28125 	-0.96875 	0.5 	-10.2244
0.296875 	-0.96875 	0.5 	-10.235
0.3125 	-0.96875 	0.5 	-10.2267
0.328125 	-0.96875 	0.5 	-10.2258
0.34375 	-0.96875 	0.5 	-10.1977
0.359375 	-0.96875 	0.5 	-10.1724
0.375 	-0.96875 	0.5 	-10.1265
0.390625 	-0.96875 	0.5 	-10.0526
0.40625 	-0.96875 	0.5 	-9.98527
0.421875 	-0.96875 	0.5 	-9.88672
0.4375 	-0.96875 	0.5 	-9.81967
0.453125 	-0.96875 	0.5 	-9.71154
0.46875 	-0.96875 	0.5 	-9.60301
0.484375 	-0.96875 	0.5 	-9.48171
0.5 	-0.96875 	0.5 	-9.36151
0.515625 	-0.96875 	0.5 	-9.23988
0.53125 	-0.96875 	0.5 	-9.08612
0.546875 	-0.96875 	0.5 	-8.93275
0.5625 	-0.96875 	0.5 	-8.76087
0.578125 	-0.96875 	0.5 	-8.62107
0.59375 	-0.96875 	0.5 	-8.44643
0.609375 	-0.96875 	0.5 	-8.29315
0.625 	-0.96875 	0.5 	-8.19116
0.640625 	-0.96875 	0.5 	-7.93692
0.65625 	-0.96875 	0.5 	-7.79689
0.671875 	-0.96875 	0.5 	-7.6196
0.6875 	-0.96875 	0.5 	-7.41596
0.703125 	-0.96875 	0.5 	-7.24903
0.71875 	-0.96875 	0.5 	-7.07449
0.734375 	-0.96875 	0.5 	-6.91749
0.75 	-0.96875 	0.5 	-6.74964
0.765625 	-0.96875 	0.5 	-6.57727
0.78125 	-0.96875 	0.5 	-6.43295
0.796875 	-0.96875 	0.5 	-6.26547
0.8125 	-0.96875 	0.5 	-6.11682
0.828125 	-0.96875 	0.5 	-5.91388
0.84375 	-0.96875 	0.5 	-5.80795
0.859375 	-0.96875 	0.5 	-5.66983
0.875 	-0.96875 	0.5 	-5.55134
0.890625 	-0.96875 	0.5 	-5.44176
0.90625 	-0.96875 	0.5 	-5.3371
0.921875 	-0.96875 	0.5 	-5.2173
0.9375 	-0.96875 	0.5 	-5.08862
0.953125 	-0.96875 	0.5 	-5.00013
0.96875 	-0.96875 	0.5 	-4.95201
0.984375 	-0.96875 	0.5 	-4.94904
1 	-0.96875 	0.5 	-4.83552
1.01562 	-0.96875 	0.5 	-4.78486
1.03125 	-0.96875 	0.5 	-4.75122
1.04688 	-0.96875 	0.5 	-4.74832
1.0625 	-0.96875 	0.5 	-4.71656
1.07812 	-0.96875 	0.5 	-4.68857
1.09375 	-0.96875 	0.5 	-4.67259
1.10938 	-0.96875 	0.5 	-4.69605
1.125 	-0.96875 	0.5 	-4.76597
1.14062 	-0.96875 	0.5 	-4.79647
1.15625 	-0.96875 	0.5 	-4.75287
1.17188 	-0.96875 	0.5 	-4.77145
1.1875 	-0.96875 	0.5 	-4.75137
1.20312 	-0.96875 	0.5 	-4.86663
1.21875 	-0.96875 	0.5 	-4.9444
1.23438 	-0.96875 	0.5 	-5.05844
1.25 	-0.96875 	0.5 	-5.16862
1.26562 	-0.96875 	0.5 	-5.27942
1.28125 	-0.96875 	0.5 	-5.38377
1.29688 	-0.96875 	0.5 	-5.53297
1.3125 	-0.96875 	0.5 	-5.63999
1.32812 	-0.96875 	0.5 	-5.69432
1.34375 	-0.96875 	0.5 	-5.83822
1.35938 	-0.96875 	0.5 	-5.96193
1.375 	-0.96875 	0.5 	-6.07608
1.39062 	-0.96875 	0.5 	-6.23511
1.40625 	-0.96875 	0.5 	-6.40687
1.42188 	-0.96875 	0.5 	-6.57281
1.4375 	-0.96875 	0.5 	-6.75234
1.45312 	-0.96875 	0.5 	-6.88154
1.46875 	-0.96875 	0.5 	-7.01286
1.48438 	-0.96875 	0.5 	-7.20543
-0.5 	-0.953125 	0.5 	-6.67392
-0.484375 	-0.953125 	0.5 	-6.623
-0.46875 	-0.953125 	0.5 	-6.55147
-0.453125 	-0.953125 	0.5 	-6.50638
-0.4375 	-0.953125 	0.5 	-6.45319
-0.421875 	-0.953125 	0.5 	-6.43711
-0.40625 	-0.953125 	0.5 	-6.44476
-0.390625 	-0.953125 	0.5 	-6.43267
-0.375 	-0.953125 	0.5 	-6.39068
-0.359375 	-0.953125 	0.5 	-6.39013
-0.34375 	-0.953125 	0.5 	-6.40694
-0.328125 	-0.953125 	0.5 	-6.43391
-0.3125 	-0.953125 	0.5 	-6.46693
-0.296875 	-0.953125 	0.5 	-6.49868
-0.28125 	-0.953125 	0.5 	-6.57257
-0.265625 	-0.953125 	0.5 	-6.63734
-0.25 	-0.953125 	0.5 	-6.69204
-0.234375 	-0.953125 	0.5 	-6.74618
-0.21875 	-0.953125 	0.5 	-6.86549
-0.203125 	-0.953125 	0.5 	-6.96646
-0.1875 	-0.953125 	0.5 	-7.04375
-0.171875 	-0.953125 	0.5 	-7.14186
-0.15625 	-0.953125 	0.5 	-7.24058
-0.140625 	-0.953125 	0.5 	-7.37362
-0.125 	-0.953125 	0.5 	-7.50299
-0.109375 	-0.953125 	0.5 	-7.62646
-0.09375 	-0.953125 	0.5 	-7.73913
-0.078125 	-0.953125 	0.5 	-7.86882
-0.0625 	-0.953125 	0.5 	-8.01796
-0.046875 	-0.953125 	0.5 	-8.16276
-0.03125 	-0.953125 	0.5 	-8.31232
-0.015625 	-0.953125 	0.5 	-8.44029
0 	-0.953125 	0.5 	-8.58767
0.015625 	-0.953125 	0.5 	-8.72211
0.03125 	-0.953125 	0.5 	-8.88677
0.046875 	-0.953125 	0.5 	-9.01989
0.0625 	-0.953125 	0.5 	-9.15064
0.078125 	-0.953125 	0.5 	-9.28084
0.09375 	-0.953125 	0.5 	-9.40328
0.109375 	-0.953125 	0.5 	-9.5356
0.125 	-0.953125 	0.5 	-9.64544
0.140625 	-0.953125 	0.5 	-9.74119
0.15625 	-0.953125 	0.5 	-9.85413
0.171875 	-0.953125 	0.5 	-9.96278
0.1875 	-0.953125 	0.5 	-10.0483
0.203125 	-0.953125 	0.5 	-10.1096
0.21875 	-0.953125 	0.5 	-10.1796
0.234375 	-0.953125 	0.5 	-10.2352
0.25 	-0.953125 	0.5 	-10.2631
0.265625 	-0.953125 	0.5 	-10.2986
0.28125 	-0.953125 	0.5 	-10.3186
0.296875 	-0.953125 	0.5 	-10.325
0.3125 	-0.953125 	0.5 	-10.3224
0.328125 	-0.953125 	0.5 	-10.3181
0.34375 	-0.953125 	0.5 	-10.2796
0.359375 	-0.953125 	0.5 	-10.2369
0.375 	-0.953125 	0.5 	-10.1982
0.390625 	-0.953125 	0.5 	-10.1383
0.40625 	-0.953125 	0.5 	-10.0617
0.421875 	-0.953125 	0.5 	-9.98145
0.4375 	-0.953125 	0.5 	-9.87944
0.453125 	-0.953125 	0.5 	-9.76342
0.46875 	-0.953125 	0.5 	-9.65313
0.484375 	-0.953125 	0.5 	-9.53183
0.5 	-0.953125 	0.5 	-9.39539
0.515625 	-0.953125 	0.5 	-9.22935
0.53125 	-0.953125 	0.5 	-9.08449
0.546875 	-0.953125 	0.5 	-8.92753
0.5625 	-0.953125 	0.5 	-8.76597
0.578125 	-0.953125 	0.5 	-8.6088
0.59375 	-0.953125 	0.5 	-8.49388
0.609375 	-0.953125 	0.5 	-8.2816
0.625 	-0.953125 	0.5 	-8.08917
0.640625 	-0.953125 	0.5 	-7.88984
0.65625 	-0.953125 	0.5 	-7.72292
0.671875 	-0.953125 	0.5 	-7.54259
0.6875 	-0.953125 	0.5 	-7.35688
0.703125 	-0.953125 	0.5 	-7.18166
0.71875 	-0.953125 	0.5 	-6.99282
0.734375 	-0.953125 	0.5 	-6.78325
0.75 	-0.953125 	0.5 	-6.55977
0.765625 	-0.953125 	0.5 	-6.4364
0.78125 	-0.953125 	0.5 	-6.25133
0.796875 	-0.953125 	0.5 	-6.09912
0.8125 	-0.953125 	0.5 	-5.93632
0.828125 	-0.953125 	0.5 	-5.75606
0.84375 	-0.953125 	0.5 	-5.62659
0.859375 	-0.953125 	0.5 	-5.50502
0.875 	-0.953125 	0.5 	-5.34871
0.890625 	-0.953125 	0.5 	-5.21664
0.90625 	-0.953125 	0.5 	-5.09937
0.921875 	-0.953125 	0.5 	-4.97642
0.9375 	-0.953125 	0.5 	-4.84619
0.953125 	-0.953125 	0.5 	-4.70879
0.96875 	-0.953125 	0.5 	-4.67543
0.984375 	-0.953125 	0.5 	-4.65397
1 	-0.953125 	0.5 	-4.59693
1.01562 	-0.953125 	0.5 	-4.53975
1.03125 	-0.953125 	0.5 	-4.50894
1.04688 	-0.953125 	0.5 	-4.48725
1.0625 	-0.953125 	0.5 	-4.46502
1.07812 	-0.953125 	0.5 	-4.4333
1.09375 	-0.953125 	0.5 	-4.42224
1.10938 	-0.953125 	0.5 	-4.46231
1.125 	-0.953125 	0.5 	-4.45694
1.14062 	-0.953125 	0.5 	-4.52904
1.15625 	-0.953125 	0.5 	-4.51631
1.17188 	-0.953125 	0.5 	-4.51196
1.1875 	-0.953125 	0.5 	-4.57795
1.20312 	-0.953125 	0.5 	-4.61113
1.21875 	-0.953125 	0.5 	-4.72039
1.23438 	-0.953125 	0.5 	-4.83776
1.25 	-0.953125 	0.5 	-4.94852
1.26562 	-0.953125 	0.5 	-5.03299
1.28125 	-0.953125 	0.5 	-5.16486
1.29688 	-0.953125 	0.5 	-5.26748
1.3125 	-0.953125 	0.5 	-5.40295
1.32812 	-0.953125 	0.5 	-5.4349
1.34375 	-0.953125 	0.5 	-5.53553
1.35938 	-0.953125 	0.5 	-5.72389
1.375 	-0.953125 	0.5 	-5.86917
1.39062 	-0.953125 	0.5 	-6.04298
1.40625 	-0.953125 	0.5 	-6.21706
1.42188 	-0.953125 	0.5 	-6.37089
1.4375 	-0.953125 	0.5 	-6.54931
1.45312 	-0.953125 	0.5 	-6.72953
1.46875 	-0.953125 	0.5 	-6.89632
1.48438 	-0.953125 	0.5 	-7.04114
-0.5 	-0.9375 	0.5 	-6.46432
-0.484375 	-0.9375 	0.5 	-6.39351
-0.46875 	-0.9375 	0.5 	-6.34544
-0.453125 	-0.9375 	0.5 	-6.29737
-0.4375 	-0.9375 	0.5 	-6.24924
-0.421875 	-0.9375 	0.5 	-6.22486
-0.40625 	-0.9375 	0.5 	-6.21193
-0.390625 	-0.9375 	0.5 	-6.20008
-0.375 	-0.9375 	0.5 	-6.17483
-0.359375 	-0.9375 	0.5 	-6.18112
-0.34375 	-0.9375 	0.5 	-6.18956
-0.328125 	-0.9375 	0.5 	-6.21468
-0.3125 	-0.9375 	0.5 	-6.2472
-0.296875 	-0.9375 	0.5 	-6.27473
-0.28125 	-0.9375 	0.5 	-6.35637
-0.265625 	-0.9375 	0.5 	-6.45847
-0.25 	-0.9375 	0.5 	-6.49328
-0.234375 	-0.9375 	0.5 	-6.58241
-0.21875 	-0.9375 	0.5 	-6.68223
-0.203125 	-0.9375 	0.5 	-6.81422
-0.1875 	-0.9375 	0.5 	-6.87161
-0.171875 	-0.9375 	0.5 	-6.96995
-0.15625 	-0.9375 	0.5 	-7.06909
-0.140625 	-0.9375 	0.5 	-7.21825
-0.125 	-0.9375 	0.5 	-7.36084
-0.109375 	-0.9375 	0.5 	-7.48203
-0.09375 	-0.9375 	0.5 	-7.64207
-0.078125 	-0.9375 	0.5 	-7.76978
-0.0625 	-0.9375 	0.5 	-7.91101
-0.046875 	-0.9375 	0.5 	-8.06555
-0.03125 	-0.9375 	0.5 	-8.23009
-0.015625 	-0.9375 	0.5 	-8.37146
0 	-0.9375 	0.5 	-8.53871
0.015625 	-0.9375 	0.5 	-8.69265
0.03125 	-0.9375 	0.5 	-8.86549
0.046875 	-0.9375 	0.5 	-9.00287
0.0625 	-0.9375 	0.5 	-9.14226
0.078125 	-0.9375 	0.5 	-9.28807
0.09375 	-0.9375 	0.5 	-9.40115
0.109375 	-0.9375 	0.5 	-9.54432
0.125 	-0.9375 	0.5 	-9.6641
0.140625 	-0.9375 	0.5 	-9.80589
0.15625 	-0.9375 	0.5 	-9.89917
0.171875 	-0.9375 	0.5 	-10.0164
0.1875 	-0.9375 	0.5 	-10.1019
0.203125 	-0.9375 	0.5 	-10.1736
0.21875 	-0.9375 	0.5 	-10.2562
0.234375 	-0.9375 	0.5 	-10.3109
0.25 	-0.9375 	0.5 	-10.3605
0.265625 	-0.9375 	0.5 	-10.3971
0.28125 	-0.9375 	0.5 	-10.4129
0.296875 	-0.9375 	0.5 	-10.4217
0.3125 	-0.9375 	0.5 	-10.4594
0.328125 	-0.9375 	0.5 	-10.4227
0.34375 	-0.9375 	0.5 	-10.398
0.359375 	-0.9375 	0.5 	-10.3438
0.375 	-0.9375 	0.5 	-10.3117
0.390625 	-0.9375 	0.5 	-10.2423
0.40625 	-0.9375 	0.5 	-10.1679
0.421875 	-0.9375 	0.5 	-10.0649
0.4375 	-0.9375 	0.5 	-9.95896
0.453125 	-0.9375 	0.5 	-9.8262
0.46875 	-0.9375 	0.5 	-9.70324
0.484375 	-0.9375 	0.5 	-9.5577
0.5 	-0.9375 	0.5 	-9.42926
0.515625 	-0.9375 	0.5 	-9.25875
0.53125 	-0.9375 	0.5 	-9.12526
0.546875 	-0.9375 	0.5 	-8.98454
0.5625 	-0.9375 	0.5 	-8.767
0.578125 	-0.9375 	0.5 	-8.57923
0.59375 	-0.9375 	0.5 	-8.40495
0.609375 	-0.9375 	0.5 	-8.24074
0.625 	-0.9375 	0.5 	-7.99577
0.640625 	-0.9375 	0.5 	-7.80484
0.65625 	-0.9375 	0.5 	-7.66369
0.671875 	-0.9375 	0.5 	-7.4585
0.6875 	-0.9375 	0.5 	-7.2689
0.703125 	-0.9375 	0.5 	-7.06533
0.71875 	-0.9375 	0.5 	-6.85181
0.734375 	-0.9375 	0.5 	-6.65335
0.75 	-0.9375 	0.5 	-6.42949
0.765625 	-0.9375 	0.5 	-6.26965
0.78125 	-0.9375 	0.5 	-6.09565
0.796875 	-0.9375 	0.5 	-5.92728
0.8125 	-0.9375 	0.5 	-5.76824
0.828125 	-0.9375 	0.5 	-5.59847
0.84375 	-0.9375 	0.5 	-5.42703
0.859375 	-0.9375 	0.5 	-5.26465
0.875 	-0.9375 	0.5 	-5.12734
0.890625 	-0.9375 	0.5 	-4.99661
0.90625 	-0.9375 	0.5 	-4.86167
0.921875 	-0.9375 	0.5 	-4.71994
0.9375 	-0.9375 	0.5 	-4.57845
0.953125 	-0.9375 	0.5 	-4.4644
0.96875 	-0.9375 	0.5 	-4.40671
0.984375 	-0.9375 	0.5 	-4.4101
1 	-0.9375 	0.5 	-4.33988
1.01562 	-0.9375 	0.5 	-4.26208
1.03125 	-0.9375 	0.5 	-4.21466
1.04688 	-0.9375 	0.5 	-4.18026
1.0625 	-0.9375 	0.5 	-4.17185
1.07812 	-0.9375 	0.5 	-4.16342
1.09375 	-0.9375 	0.5 	-4.18652
1.10938 	-0.9375 	0.5 	-4.14602
1.125 	-0.9375 	0.5 	-4.28183
1.14062 	-0.9375 	0.5 	-4.27265
1.15625 	-0.9375 	0.5 	-4.26305
1.17188 	-0.9375 	0.5 	-4.28403
1.1875 	-0.9375 	0.5 	-4.36383
1.20312 	-0.9375 	0.5 	-4.44328
1.21875 	-0.9375 	0.5 	-4.52274
1.23438 	-0.9375 	0.5 	-4.61762
1.25 	-0.9375 	0.5 	-4.72614
1.26562 	-0.9375 	0.5 	-4.77496
1.28125 	-0.9375 	0.5 	-4.94858
1.29688 	-0.9375 	0.5 	-5.03259
1.3125 	-0.9375 	0.5 	-5.14753
1.32812 	-0.9375 	0.5 	-5.20944
1.34375 	-0.9375 	0.5 	-5.37241
1.35938 	-0.9375 	0.5 	-5.49339
1.375 	-0.9375 	0.5 	-5.6516
1.39062 	-0.9375 	0.5 	-5.83648
1.40625 	-0.9375 	0.5 	-6.01195
1.42188 	-0.9375 	0.5 	-6.16897
1.4375 	-0.9375 	0.5 	-6.34614
1.45312 	-0.9375 	0.5 	-6.52645
1.46875 	-0.9375 	0.5 	-6.70668
1.48438 	-0.9375 	0.5 	-6.8869
-0.5 	-0.921875 	0.5 	-6.23273
-0.484375 	-0.921875 	0.5 	-6.15629
-0.46875 	-0.921875 	0.5 	-6.11
-0.453125 	-0.921875 	0.5 	-6.06632
-0.4375 	-0.921875 	0.5 	-6.01642
-0.421875 	-0.921875 	0.5 	-5.98339
-0.40625 	-0.921875 	0.5 	-5.98009
-0.390625 	-0.921875 	0.5 	-5.96854
-0.375 	-0.921875 	0.5 	-5.95693
-0.359375 	-0.921875 	0.5 	-5.96939
-0.34375 	-0.921875 	0.5 	-5.9843
-0.328125 	-0.921875 	0.5 	-5.99921
-0.3125 	-0.921875 	0.5 	-6.02736
-0.296875 	-0.921875 	0.5 	-6.09218
-0.28125 	-0.921875 	0.5 	-6.18887
-0.265625 	-0.921875 	0.5 	-6.26671
-0.25 	-0.921875 	0.5 	-6.31954
-0.234375 	-0.921875 	0.5 	-6.36758
-0.21875 	-0.921875 	0.5 	-6.43758
-0.203125 	-0.921875 	0.5 	-6.57473
-0.1875 	-0.921875 	0.5 	-6.70104
-0.171875 	-0.921875 	0.5 	-6.80344
-0.15625 	-0.921875 	0.5 	-6.92232
-0.140625 	-0.921875 	0.5 	-7.05907
-0.125 	-0.921875 	0.5 	-7.19768
-0.109375 	-0.921875 	0.5 	-7.32905
-0.09375 	-0.921875 	0.5 	-7.52254
-0.078125 	-0.921875 	0.5 	-7.63863
-0.0625 	-0.921875 	0.5 	-7.7886
-0.046875 	-0.921875 	0.5 	-7.95892
-0.03125 	-0.921875 	0.5 	-8.16288
-0.015625 	-0.921875 	0.5 	-8.32946
0 	-0.921875 	0.5 	-8.4813
0.015625 	-0.921875 	0.5 	-8.65166
0.03125 	-0.921875 	0.5 	-8.83069
0.046875 	-0.921875 	0.5 	-9.01677
0.0625 	-0.921875 	0.5 	-9.16695
0.078125 	-0.921875 	0.5 	-9.30339
0.09375 	-0.921875 	0.5 	-9.4321
0.109375 	-0.921875 	0.5 	-9.56512
0.125 	-0.921875 	0.5 	-9.7212
0.140625 	-0.921875 	0.5 	-9.86421
0.15625 	-0.921875 	0.5 	-9.99352
0.171875 	-0.921875 	0.5 	-10.0952
0.1875 	-0.921875 	0.5 	-10.1981
0.203125 	-0.921875 	0.5 	-10.2656
0.21875 	-0.921875 	0.5 	-10.3415
0.234375 	-0.921875 	0.5 	-10.4314
0.25 	-0.921875 	0.5 	-10.4875
0.265625 	-0.921875 	0.5 	-10.5297
0.28125 	-0.921875 	0.5 	-10.5235
0.296875 	-0.921875 	0.5 	-10.5365
0.3125 	-0.921875 	0.5 	-10.5456
0.328125 	-0.921875 	0.5 	-10.5249
0.34375 	-0.921875 	0.5 	-10.5028
0.359375 	-0.921875 	0.5 	-10.4647
0.375 	-0.921875 	0.5 	-10.4299
0.390625 	-0.921875 	0.5 	-10.3511
0.40625 	-0.921875 	0.5 	-10.241
0.421875 	-0.921875 	0.5 	-10.1711
0.4375 	-0.921875 	0.5 	-10.0468
0.453125 	-0.921875 	0.5 	-9.92863
0.46875 	-0.921875 	0.5 	-9.78499
0.484375 	-0.921875 	0.5 	-9.61969
0.5 	-0.921875 	0.5 	-9.468
0.515625 	-0.921875 	0.5 	-9.35589
0.53125 	-0.921875 	0.5 	-9.21935
0.546875 	-0.921875 	0.5 	-9.05328
0.5625 	-0.921875 	0.5 	-8.78216
0.578125 	-0.921875 	0.5 	-8.58811
0.59375 	-0.921875 	0.5 	-8.41971
0.609375 	-0.921875 	0.5 	-8.21661
0.625 	-0.921875 	0.5 	-7.87202
0.640625 	-0.921875 	0.5 	-7.69803
0.65625 	-0.921875 	0.5 	-7.54745
0.671875 	-0.921875 	0.5 	-7.36754
0.6875 	-0.921875 	0.5 	-7.17685
0.703125 	-0.921875 	0.5 	-6.97091
0.71875 	-0.921875 	0.5 	-6.72483
0.734375 	-0.921875 	0.5 	-6.51134
0.75 	-0.921875 	0.5 	-6.31106
0.765625 	-0.921875 	0.5 	-6.15082
0.78125 	-0.921875 	0.5 	-5.94775
0.796875 	-0.921875 	0.5 	-5.74057
0.8125 	-0.921875 	0.5 	-5.56823
0.828125 	-0.921875 	0.5 	-5.39015
0.84375 	-0.921875 	0.5 	-5.19835
0.859375 	-0.921875 	0.5 	-5.05116
0.875 	-0.921875 	0.5 	-4.89281
0.890625 	-0.921875 	0.5 	-4.75854
0.90625 	-0.921875 	0.5 	-4.62511
0.921875 	-0.921875 	0.5 	-4.48999
0.9375 	-0.921875 	0.5 	-4.33021
0.953125 	-0.921875 	0.5 	-4.20793
0.96875 	-0.921875 	0.5 	-4.14725
0.984375 	-0.921875 	0.5 	-4.13011
1 	-0.921875 	0.5 	-4.06203
1.01562 	-0.921875 	0.5 	-3.99395
1.03125 	-0.921875 	0.5 	-3.93111
1.04688 	-0.921875 	0.5 	-3.95247
1.0625 	-0.921875 	0.5 	-3.97762
1.07812 	-0.921875 	0.5 	-3.84203
1.09375 	-0.921875 	0.5 	-3.83554
1.10938 	-0.921875 	0.5 	-3.86051
1.125 	-0.921875 	0.5 	-3.86117
1.14062 	-0.921875 	0.5 	-3.84062
1.15625 	-0.921875 	0.5 	-3.93594
1.17188 	-0.921875 	0.5 	-4.03555
1.1875 	-0.921875 	0.5 	-4.10573
1.20312 	-0.921875 	0.5 	-4.21887
1.21875 	-0.921875 	0.5 	-4.26305
1.23438 	-0.921875 	0.5 	-4.34896
1.25 	-0.921875 	0.5 	-4.45557
1.26562 	-0.921875 	0.5 	-4.53958
1.28125 	-0.921875 	0.5 	-4.67644
1.29688 	-0.921875 	0.5 	-4.77409
1.3125 	-0.921875 	0.5 	-4.87504
1.32812 	-0.921875 	0.5 	-5.01262
1.34375 	-0.921875 	0.5 	-5.12472
1.35938 	-0.921875 	0.5 	-5.26681
1.375 	-0.921875 	0.5 	-5.42918
1.39062 	-0.921875 	0.5 	-5.6036
1.40625 	-0.921875 	0.5 	-5.79276
1.42188 	-0.921875 	0.5 	-5.96705
1.4375 	-0.921875 	0.5 	-6.14289
1.45312 	-0.921875 	0.5 	-6.32391
1.46875 	-0.921875 	0.5 	-6.51646
1.48438 	-0.921875 	0.5 	-6.70457
-0.5 	-0.90625 	0.5 	-5.9976
-0.484375 	-0.90625 	0.5 	-5.92083
-0.46875 	-0.90625 	0.5 	-5.85949
-0.453125 	-0.90625 	0.5 	-5.81621
-0.4375 	-0.90625 	0.5 	-5.77148
-0.421875 	-0.90625 	0.5 	-5.7318
-0.40625 	-0.90625 	0.5 	-5.72978
-0.390625 	-0.90625 	0.5 	-5.71086
-0.375 	-0.90625 	0.5 	-5.7291
-0.359375 	-0.90625 	0.5 	-5.69288
-0.34375 	-0.90625 	0.5 	-5.7057
-0.328125 	-0.90625 	0.5 	-5.74882
-0.3125 	-0.90625 	0.5 	-5.8118
-0.296875 	-0.90625 	0.5 	-5.8688
-0.28125 	-0.90625 	0.5 	-5.93839
-0.265625 	-0.90625 	0.5 	-5.989
-0.25 	-0.90625 	0.5 	-6.06136
-0.234375 	-0.90625 	0.5 	-6.13097
-0.21875 	-0.90625 	0.5 	-6.25135
-0.203125 	-0.90625 	0.5 	-6.35835
-0.1875 	-0.90625 	0.5 	-6.546
-0.171875 	-0.90625 	0.5 	-6.68137
-0.15625 	-0.90625 	0.5 	-6.80102
-0.140625 	-0.90625 	0.5 	-6.92048
-0.125 	-0.90625 	0.5 	-7.06312
-0.109375 	-0.90625 	0.5 	-7.2298
-0.09375 	-0.90625 	0.5 	-7.39746
-0.078125 	-0.90625 	0.5 	-7.53227
-0.0625 	-0.90625 	0.5 	-7.68074
-0.046875 	-0.90625 	0.5 	-7.90637
-0.03125 	-0.90625 	0.5 	-8.10113
-0.015625 	-0.90625 	0.5 	-8.27134
0 	-0.90625 	0.5 	-8.43237
0.015625 	-0.90625 	0.5 	-8.61592
0.03125 	-0.90625 	0.5 	-8.80048
0.046875 	-0.90625 	0.5 	-8.98933
0.0625 	-0.90625 	0.5 	-9.13874
0.078125 	-0.90625 	0.5 	-9.31297
0.09375 	-0.90625 	0.5 	-9.4678
0.109375 	-0.90625 	0.5 	-9.61298
0.125 	-0.90625 	0.5 	-9.77391
0.140625 	-0.90625 	0.5 	-9.90832
0.15625 	-0.90625 	0.5 	-10.0495
0.171875 	-0.90625 	0.5 	-10.1739
0.1875 	-0.90625 	0.5 	-10.2861
0.203125 	-0.90625 	0.5 	-10.369
0.21875 	-0.90625 	0.5 	-10.4404
0.234375 	-0.90625 	0.5 	-10.5406
0.25 	-0.90625 	0.5 	-10.6004
0.265625 	-0.90625 	0.5 	-10.6563
0.28125 	-0.90625 	0.5 	-10.6579
0.296875 	-0.90625 	0.5 	-10.6842
0.3125 	-0.90625 	0.5 	-10.677
0.328125 	-0.90625 	0.5 	-10.663
0.34375 	-0.90625 	0.5 	-10.6337
0.359375 	-0.90625 	0.5 	-10.5929
0.375 	-0.90625 	0.5 	-10.5162
0.390625 	-0.90625 	0.5 	-10.4692
0.40625 	-0.90625 	0.5 	-10.3662
0.421875 	-0.90625 	0.5 	-10.2569
0.4375 	-0.90625 	0.5 	-10.144
0.453125 	-0.90625 	0.5 	-10.0242
0.46875 	-0.90625 	0.5 	-9.87269
0.484375 	-0.90625 	0.5 	-9.72092
0.5 	-0.90625 	0.5 	-9.555
0.515625 	-0.90625 	0.5 	-9.37367
0.53125 	-0.90625 	0.5 	-9.26174
0.546875 	-0.90625 	0.5 	-9.06398
0.5625 	-0.90625 	0.5 	-8.82757
0.578125 	-0.90625 	0.5 	-8.59348
0.59375 	-0.90625 	0.5 	-8.37409
0.609375 	-0.90625 	0.5 	-8.19012
0.625 	-0.90625 	0.5 	-7.93008
0.640625 	-0.90625 	0.5 	-7.72314
0.65625 	-0.90625 	0.5 	-7.59146
0.671875 	-0.90625 	0.5 	-7.29358
0.6875 	-0.90625 	0.5 	-7.0939
0.703125 	-0.90625 	0.5 	-6.83188
0.71875 	-0.90625 	0.5 	-6.61109
0.734375 	-0.90625 	0.5 	-6.373
0.75 	-0.90625 	0.5 	-6.14905
0.765625 	-0.90625 	0.5 	-5.94908
0.78125 	-0.90625 	0.5 	-5.78088
0.796875 	-0.90625 	0.5 	-5.59571
0.8125 	-0.90625 	0.5 	-5.39039
0.828125 	-0.90625 	0.5 	-5.19952
0.84375 	-0.90625 	0.5 	-5.03831
0.859375 	-0.90625 	0.5 	-4.8251
0.875 	-0.90625 	0.5 	-4.67103
0.890625 	-0.90625 	0.5 	-4.50164
0.90625 	-0.90625 	0.5 	-4.37853
0.921875 	-0.90625 	0.5 	-4.2663
0.9375 	-0.90625 	0.5 	-4.10105
0.953125 	-0.90625 	0.5 	-4.00965
0.96875 	-0.90625 	0.5 	-3.97256
0.984375 	-0.90625 	0.5 	-3.85361
1 	-0.90625 	0.5 	-3.6647
1.01562 	-0.90625 	0.5 	-3.70165
1.03125 	-0.90625 	0.5 	-3.64789
1.04688 	-0.90625 	0.5 	-3.67364
1.0625 	-0.90625 	0.5 	-3.67273
1.07812 	-0.90625 	0.5 	-3.55158
1.09375 	-0.90625 	0.5 	-3.5755
1.10938 	-0.90625 	0.5 	-3.55035
1.125 	-0.90625 	0.5 	-3.54666
1.14062 	-0.90625 	0.5 	-3.54348
1.15625 	-0.90625 	0.5 	-3.62841
1.17188 	-0.90625 	0.5 	-3.76208
1.1875 	-0.90625 	0.5 	-3.87929
1.20312 	-0.90625 	0.5 	-3.91619
1.21875 	-0.90625 	0.5 	-3.99395
1.23438 	-0.90625 	0.5 	-4.08789
1.25 	-0.90625 	0.5 	-4.18585
1.26562 	-0.90625 	0.5 	-4.29415
1.28125 	-0.90625 	0.5 	-4.39122
1.29688 	-0.90625 	0.5 	-4.48793
1.3125 	-0.90625 	0.5 	-4.61977
1.32812 	-0.90625 	0.5 	-4.73242
1.34375 	-0.90625 	0.5 	-4.92774
1.35938 	-0.90625 	0.5 	-5.04458
1.375 	-0.90625 	0.5 	-5.20696
1.39062 	-0.90625 	0.5 	-5.38632
1.40625 	-0.90625 	0.5 	-5.57191
1.42188 	-0.90625 	0.5 	-5.75285
1.4375 	-0.90625 	0.5 	-5.95708
1.45312 	-0.90625 	0.5 	-6.15361
1.46875 	-0.90625 	0.5 	-6.34612
1.48438 	-0.90625 	0.5 	-6.52058
-0.5 	-0.890625 	0.5 	-5.76642
-0.484375 	-0.890625 	0.5 	-5.69277
-0.46875 	-0.890625 	0.5 	-5.61913
-0.453125 	-0.890625 	0.5 	-5.56814
-0.4375 	-0.890625 	0.5 	-5.52843
-0.421875 	-0.890625 	0.5 	-5.48873
-0.40625 	-0.890625 	0.5 	-5.463
-0.390625 	-0.890625 	0.5 	-5.4814
-0.375 	-0.890625 	0.5 	-5.49951
-0.359375 	-0.890625 	0.5 	-5.46033
-0.34375 	-0.890625 	0.5 	-5.46522
-0.328125 	-0.890625 	0.5 	-5.49926
-0.3125 	-0.890625 	0.5 	-5.54143
-0.296875 	-0.890625 	0.5 	-5.67623
-0.28125 	-0.890625 	0.5 	-5.69933
-0.265625 	-0.890625 	0.5 	-5.7528
-0.25 	-0.890625 	0.5 	-5.8111
-0.234375 	-0.890625 	0.5 	-5.88819
-0.21875 	-0.890625 	0.5 	-6.03174
-0.203125 	-0.890625 	0.5 	-6.15679
-0.1875 	-0.890625 	0.5 	-6.41089
-0.171875 	-0.890625 	0.5 	-6.46596
-0.15625 	-0.890625 	0.5 	-6.61432
-0.140625 	-0.890625 	0.5 	-6.71134
-0.125 	-0.890625 	0.5 	-6.89283
-0.109375 	-0.890625 	0.5 	-7.07036