-0.5 	-1 	0.5 	-75.8644
-0.484375 	-1 	0.5 	-75.9305
-0.46875 	-1 	0.5 	-75.9972
-0.453125 	-1 	0.5 	-76.0744
-0.4375 	-1 	0.5 	-76.1392
-0.421875 	-1 	0.5 	-76.2281
-0.40625 	-1 	0.5 	-76.3415
-0.390625 	-1 	0.5 	-76.4196
-0.375 	-1 	0.5 	-76.4967
-0.359375 	-1 	0.5 	-76.5902
-0.34375 	-1 	0.5 	-76.7278
-0.328125 	-1 	0.5 	-76.8097
-0.3125 	-1 	0.5 	-76.9275
-0.296875 	-1 	0.5 	-76.9952
-0.28125 	-1 	0.5 	-77.0698
-0.265625 	-1 	0.5 	-77.2055
-0.25 	-1 	0.5 	-77.3236
-0.234375 	-1 	0.5 	-77.4375
-0.21875 	-1 	0.5 	-77.5883
-0.203125 	-1 	0.5 	-77.7157
-0.1875 	-1 	0.5 	-77.838
-0.171875 	-1 	0.5 	-77.9194
-0.15625 	-1 	0.5 	-78.0384
-0.140625 	-1 	0.5 	-78.1849
-0.125 	-1 	0.5 	-78.3146
-0.109375 	-1 	0.5 	-78.4471
-0.09375 	-1 	0.5 	-78.5779
-0.078125 	-1 	0.5 	-78.7151
-0.0625 	-1 	0.5 	-78.8391
-0.046875 	-1 	0.5 	-78.9774
-0.03125 	-1 	0.5 	-79.1197
-0.015625 	-1 	0.5 	-79.2556
0 	-1 	0.5 	-79.3873
0.015625 	-1 	0.5 	-79.5257
0.03125 	-1 	0.5 	-79.6681
0.046875 	-1 	0.5 	-79.7833
0.0625 	-1 	0.5 	-79.9204
0.078125 	-1 	0.5 	-80.0358
0.09375 	-1 	0.5 	-80.1812
0.109375 	-1 	0.5 	-80.3182
0.125 	-1 	0.5 	-80.455
0.140625 	-1 	0.5 	-80.5413
0.15625 	-1 	0.5 	-80.6522
0.171875 	-1 	0.5 	-80.788
0.1875 	-1 	0.5 	-80.8979
0.203125 	-1 	0.5 	-81.0116
0.21875 	-1 	0.5 	-81.1145
0.234375 	-1 	0.5 	-81.2222
0.25 	-1 	0.5 	-81.3101
0.265625 	-1 	0.5 	-81.4254
0.28125 	-1 	0.5 	-81.5187
0.296875 	-1 	0.5 	-81.5803
0.3125 	-1 	0.5 	-81.6463
0.328125 	-1 	0.5 	-81.7324
0.34375 	-1 	0.5 	-81.8415
0.359375 	-1 	0.5 	-81.9176
0.375 	-1 	0.5 	-82.0044
0.390625 	-1 	0.5 	-82.046
0.40625 	-1 	0.5 	-82.1185
0.421875 	-1 	0.5 	-82.1769
0.4375 	-1 	0.5 	-82.2015
0.453125 	-1 	0.5 	-82.2357
0.46875 	-1 	0.5 	-82.275
0.484375 	-1 	0.5 	-82.3146
0.5 	-1 	0.5 	-82.3498
0.515625 	-1 	0.5 	-82.3785
0.53125 	-1 	0.5 	-82.3379
0.546875 	-1 	0.5 	-82.3956
0.5625 	-1 	0.5 	-82.4301
0.578125 	-1 	0.5 	-82.4391
0.59375 	-1 	0.5 	-82.4404
0.609375 	-1 	0.5 	-82.4411
0.625 	-1 	0.5 	-82.4329
0.640625 	-1 	0.5 	-82.4249
0.65625 	-1 	0.5 	-82.4238
0.671875 	-1 	0.5 	-82.3958
0.6875 	-1 	0.5 	-82.3778
0.703125 	-1 	0.5 	-82.3438
0.71875 	-1 	0.5 	-82.3056
0.734375 	-1 	0.5 	-82.2746
0.75 	-1 	0.5 	-82.2562
0.765625 	-1 	0.5 	-82.229
0.78125 	-1 	0.5 	-82.1762
0.796875 	-1 	0.5 	-82.1272
0.8125 	-1 	0.5 	-82.0821
0.828125 	-1 	0.5 	-82.0471
0.84375 	-1 	0.5 	-81.9787
0.859375 	-1 	0.5 	-81.9149
0.875 	-1 	0.5 	-81.8544
0.890625 	-1 	0.5 	-81.7975
0.90625 	-1 	0.5 	-81.7522
0.921875 	-1 	0.5 	-81.6786
0.9375 	-1 	0.5 	-81.6112
0.953125 	-1 	0.5 	-81.5655
0.96875 	-1 	0.5 	-81.5112
0.984375 	-1 	0.5 	-81.4329
1 	-1 	0.5 	-81.3349
1.01562 	-1 	0.5 	-81.2598
1.03125 	-1 	0.5 	-81.1883
1.04688 	-1 	0.5 	-81.1185
1.0625 	-1 	0.5 	-81.0475
1.07812 	-1 	0.5 	-80.9541
1.09375 	-1 	0.5 	-80.8676
1.10938 	-1 	0.5 	-80.7901
1.125 	-1 	0.5 	-80.7061
1.14062 	-1 	0.5 	-80.6316
1.15625 	-1 	0.5 	-80.5752
1.17188 	-1 	0.5 	-80.5175
1.1875 	-1 	0.5 	-80.425
1.20312 	-1 	0.5 	-80.3317
1.21875 	-1 	0.5 	-80.2483
1.23438 	-1 	0.5 	-80.1504
1.25 	-1 	0.5 	-80.0818
1.26562 	-1 	0.5 	-80.03
1.28125 	-1 	0.5 	-79.9579
1.29688 	-1 	0.5 	-79.9006
1.3125 	-1 	0.5 	-79.8235
1.32812 	-1 	0.5 	-79.7317
1.34375 	-1 	0.5 	-79.6545
1.35938 	-1 	0.5 	-79.5753
1.375 	-1 	0.5 	-79.5216
1.39062 	-1 	0.5 	-79.4625
1.40625 	-1 	0.5 	-79.3951
1.42188 	-1 	0.5 	-79.3399
1.4375 	-1 	0.5 	-79.2824
1.45312 	-1 	0.5 	-79.2211
1.46875 	-1 	0.5 	-79.1536
1.48438 	-1 	0.5 	-79.0977
-0.5 	-0.984375 	0.5 	-75.7886
-0.484375 	-0.984375 	0.5 	-75.8607
-0.46875 	-0.984375 	0.5 	-75.9289
-0.453125 	-0.984375 	0.5 	-75.9959
-0.4375 	-0.984375 	0.5 	-76.0694
-0.421875 	-0.984375 	0.5 	-76.1899
-0.40625 	-0.984375 	0.5 	-76.2802
-0.390625 	-0.984375 	0.5 	-76.3752
-0.375 	-0.984375 	0.5 	-76.4559
-0.359375 	-0.984375 	0.5 	-76.5498
-0.34375 	-0.984375 	0.5 	-76.6687
-0.328125 	-0.984375 	0.5 	-76.777
-0.3125 	-0.984375 	0.5 	-76.861
-0.296875 	-0.984375 	0.5 	-76.9288
-0.28125 	-0.984375 	0.5 	-77.0242
-0.265625 	-0.984375 	0.5 	-77.1559
-0.25 	-0.984375 	0.5 	-77.2807
-0.234375 	-0.984375 	0.5 	-77.3877
-0.21875 	-0.984375 	0.5 	-77.5268
-0.203125 	-0.984375 	0.5 	-77.6844
-0.1875 	-0.984375 	0.5 	-77.8055
-0.171875 	-0.984375 	0.5 	-77.9114
-0.15625 	-0.984375 	0.5 	-78.0483
-0.140625 	-0.984375 	0.5 	-78.1851
-0.125 	-0.984375 	0.5 	-78.313
-0.109375 	-0.984375 	0.5 	-78.448
-0.09375 	-0.984375 	0.5 	-78.5811
-0.078125 	-0.984375 	0.5 	-78.714
-0.0625 	-0.984375 	0.5 	-78.855
-0.046875 	-0.984375 	0.5 	-78.9948
-0.03125 	-0.984375 	0.5 	-79.1352
-0.015625 	-0.984375 	0.5 	-79.2636
0 	-0.984375 	0.5 	-79.4283
0.015625 	-0.984375 	0.5 	-79.602
0.03125 	-0.984375 	0.5 	-79.7028
0.046875 	-0.984375 	0.5 	-79.8432
0.0625 	-0.984375 	0.5 	-79.9481
0.078125 	-0.984375 	0.5 	-80.0791
0.09375 	-0.984375 	0.5 	-80.2303
0.109375 	-0.984375 	0.5 	-80.361
0.125 	-0.984375 	0.5 	-80.4817
0.140625 	-0.984375 	0.5 	-80.6168
0.15625 	-0.984375 	0.5 	-80.7556
0.171875 	-0.984375 	0.5 	-80.8767
0.1875 	-0.984375 	0.5 	-81.0364
0.203125 	-0.984375 	0.5 	-81.1158
0.21875 	-0.984375 	0.5 	-81.219
0.234375 	-0.984375 	0.5 	-81.3272
0.25 	-0.984375 	0.5 	-81.4385
0.265625 	-0.984375 	0.5 	-81.5558
0.28125 	-0.984375 	0.5 	-81.6317
0.296875 	-0.984375 	0.5 	-81.7254
0.3125 	-0.984375 	0.5 	-81.7836
0.328125 	-0.984375 	0.5 	-81.8616
0.34375 	-0.984375 	0.5 	-81.9535
0.359375 	-0.984375 	0.5 	-82.0366
0.375 	-0.984375 	0.5 	-82.0851
0.390625 	-0.984375 	0.5 	-82.1595
0.40625 	-0.984375 	0.5 	-82.266
0.421875 	-0.984375 	0.5 	-82.2943
0.4375 	-0.984375 	0.5 	-82.3398
0.453125 	-0.984375 	0.5 	-82.3532
0.46875 	-0.984375 	0.5 	-82.4078
0.484375 	-0.984375 	0.5 	-82.4503
0.5 	-0.984375 	0.5 	-82.4793
0.515625 	-0.984375 	0.5 	-82.5113
0.53125 	-0.984375 	0.5 	-82.5267
0.546875 	-0.984375 	0.5 	-82.5422
0.5625 	-0.984375 	0.5 	-82.551
0.578125 	-0.984375 	0.5 	-82.5652
0.59375 	-0.984375 	0.5 	-82.5724
0.609375 	-0.984375 	0.5 	-82.5714
0.625 	-0.984375 	0.5 	-82.5328
0.640625 	-0.984375 	0.5 	-82.5388
0.65625 	-0.984375 	0.5 	-82.5495
0.671875 	-0.984375 	0.5 	-82.5306
0.6875 	-0.984375 	0.5 	-82.5045
0.703125 	-0.984375 	0.5 	-82.471
0.71875 	-0.984375 	0.5 	-82.4237
0.734375 	-0.984375 	0.5 	-82.4123
0.75 	-0.984375 	0.5 	-82.3634
0.765625 	-0.984375 	0.5 	-82.33
0.78125 	-0.984375 	0.5 	-82.2825
0.796875 	-0.984375 	0.5 	-82.2341
0.8125 	-0.984375 	0.5 	-82.1853
0.828125 	-0.984375 	0.5 	-82.1444
0.84375 	-0.984375 	0.5 	-82.1025
0.859375 	-0.984375 	0.5 	-82.0155
0.875 	-0.984375 	0.5 	-81.953
0.890625 	-0.984375 	0.5 	-81.893
0.90625 	-0.984375 	0.5 	-81.8317
0.921875 	-0.984375 	0.5 	-81.7588
0.9375 	-0.984375 	0.5 	-81.6918
0.953125 	-0.984375 	0.5 	-81.6388
0.96875 	-0.984375 	0.5 	-81.577
0.984375 	-0.984375 	0.5 	-81.4912
1 	-0.984375 	0.5 	-81.3898
1.01562 	-0.984375 	0.5 	-81.3093
1.03125 	-0.984375 	0.5 	-81.2555
1.04688 	-0.984375 	0.5 	-81.2019
1.0625 	-0.984375 	0.5 	-81.1003
1.07812 	-0.984375 	0.5 	-80.9987
1.09375 	-0.984375 	0.5 	-80.9164
1.10938 	-0.984375 	0.5 	-80.8276
1.125 	-0.984375 	0.5 	-80.7461
1.14062 	-0.984375 	0.5 	-80.6645
1.15625 	-0.984375 	0.5 	-80.5895
1.17188 	-0.984375 	0.5 	-80.5318
1.1875 	-0.984375 	0.5 	-80.445
1.20312 	-0.984375 	0.5 	-80.3512
1.21875 	-0.984375 	0.5 	-80.2674
1.23438 	-0.984375 	0.5 	-80.1795
1.25 	-0.984375 	0.5 	-80.1119
1.26562 	-0.984375 	0.5 	-80.0559
1.28125 	-0.984375 	0.5 	-79.9817
1.29688 	-0.984375 	0.5 	-79.9021
1.3125 	-0.984375 	0.5 	-79.8237
1.32812 	-0.984375 	0.5 	-79.7348
1.34375 	-0.984375 	0.5 	-79.6612
1.35938 	-0.984375 	0.5 	-79.5828
1.375 	-0.984375 	0.5 	-79.5321
1.39062 	-0.984375 	0.5 	-79.457
1.40625 	-0.984375 	0.5 	-79.391
1.42188 	-0.984375 	0.5 	-79.3329
1.4375 	-0.984375 	0.5 	-79.2735
1.45312 	-0.984375 	0.5 	-79.2063
1.46875 	-0.984375 	0.5 	-79.1414
1.48438 	-0.984375 	0.5 	-79.0856
-0.5 	-0.96875 	0.5 	-75.7074
-0.484375 	-0.96875 	0.5 	-75.7821
-0.46875 	-0.96875 	0.5 	-75.8514
-0.453125 	-0.96875 	0.5 	-75.922
-0.4375 	-0.96875 	0.5 	-76.0045
-0.421875 	-0.96875 	0.5 	-76.1094
-0.40625 	-0.96875 	0.5 	-76.2188
-0.390625 	-0.96875 	0.5 	-76.3032
-0.375 	-0.96875 	0.5 	-76.3816
-0.359375 	-0.96875 	0.5 	-76.4725
-0.34375 	-0.96875 	0.5 	-76.5732
-0.328125 	-0.96875 	0.5 	-76.6814
-0.3125 	-0.96875 	0.5 	-76.7889
-0.296875 	-0.96875 	0.5 	-76.8929
-0.28125 	-0.96875 	0.5 	-76.9983
-0.265625 	-0.96875 	0.5 	-77.1037
-0.25 	-0.96875 	0.5 	-77.2355
-0.234375 	-0.96875 	0.5 	-77.3495
-0.21875 	-0.96875 	0.5 	-77.4847
-0.203125 	-0.96875 	0.5 	-77.62
-0.1875 	-0.96875 	0.5 	-77.7814
-0.171875 	-0.96875 	0.5 	-77.8944
-0.15625 	-0.96875 	0.5 	-78.0156
-0.140625 	-0.96875 	0.5 	-78.1618
-0.125 	-0.96875 	0.5 	-78.307
-0.109375 	-0.96875 	0.5 	-78.4103
-0.09375 	-0.96875 	0.5 	-78.5777
-0.078125 	-0.96875 	0.5 	-78.7296
-0.0625 	-0.96875 	0.5 	-78.8726
-0.046875 	-0.96875 	0.5 	-79.0091
-0.03125 	-0.96875 	0.5 	-79.1444
-0.015625 	-0.96875 	0.5 	-79.2961
0 	-0.96875 	0.5 	-79.4344
0.015625 	-0.96875 	0.5 	-79.6215
0.03125 	-0.96875 	0.5 	-79.7601
0.046875 	-0.96875 	0.5 	-79.8964
0.0625 	-0.96875 	0.5 	-80.0099
0.078125 	-0.96875 	0.5 	-80.1437
0.09375 	-0.96875 	0.5 	-80.3159
0.109375 	-0.96875 	0.5 	-80.4419
0.125 	-0.96875 	0.5 	-80.565
0.140625 	-0.96875 	0.5 	-80.6955
0.15625 	-0.96875 	0.5 	-80.8168
0.171875 	-0.96875 	0.5 	-80.9594
0.1875 	-0.96875 	0.5 	-81.0723
0.203125 	-0.96875 	0.5 	-81.1828
0.21875 	-0.96875 	0.5 	-81.3248
0.234375 	-0.96875 	0.5 	-81.4299
0.25 	-0.96875 	0.5 	-81.5317
0.265625 	-0.96875 	0.5 	-81.6367
0.28125 	-0.96875 	0.5 	-81.7334
0.296875 	-0.96875 	0.5 	-81.8291
0.3125 	-0.96875 	0.5 	-81.9212
0.328125 	-0.96875 	0.5 	-81.9722
0.34375 	-0.96875 	0.5 	-82.0369
0.359375 	-0.96875 	0.5 	-82.1612
0.375 	-0.96875 	0.5 	-82.2324
0.390625 	-0.96875 	0.5 	-82.2957
0.40625 	-0.96875 	0.5 	-82.3618
0.421875 	-0.96875 	0.5 	-82.4114
0.4375 	-0.96875 	0.5 	-82.4611
0.453125 	-0.96875 	0.5 	-82.5004
0.46875 	-0.96875 	0.5 	-82.5406
0.484375 	-0.96875 	0.5 	-82.5875
0.5 	-0.96875 	0.5 	-82.6198
0.515625 	-0.96875 	0.5 	-82.6563
0.53125 	-0.96875 	0.5 	-82.6928
0.546875 	-0.96875 	0.5 	-82.7052
0.5625 	-0.96875 	0.5 	-82.651
0.578125 	-0.96875 	0.5 	-82.6892
0.59375 	-0.96875 	0.5 	-82.697
0.609375 	-0.96875 	0.5 	-82.6997
0.625 	-0.96875 	0.5 	-82.6796
0.640625 	-0.96875 	0.5 	-82.6847
0.65625 	-0.96875 	0.5 	-82.682
0.671875 	-0.96875 	0.5 	-82.6551
0.6875 	-0.96875 	0.5 	-82.6101
0.703125 	-0.96875 	0.5 	-82.5695
0.71875 	-0.96875 	0.5 	-82.5613
0.734375 	-0.96875 	0.5 	-82.533
0.75 	-0.96875 	0.5 	-82.4833
0.765625 	-0.96875 	0.5 	-82.439
0.78125 	-0.96875 	0.5 	-82.3956
0.796875 	-0.96875 	0.5 	-82.3492
0.8125 	-0.96875 	0.5 	-82.2905
0.828125 	-0.96875 	0.5 	-82.2141
0.84375 	-0.96875 	0.5 	-82.1721
0.859375 	-0.96875 	0.5 	-82.1173
0.875 	-0.96875 	0.5 	-82.0575
0.890625 	-0.96875 	0.5 	-81.9964
0.90625 	-0.96875 	0.5 	-81.9151
0.921875 	-0.96875 	0.5 	-81.842
0.9375 	-0.96875 	0.5 	-81.7745
0.953125 	-0.96875 	0.5 	-81.6967
0.96875 	-0.96875 	0.5 	-81.6071
0.984375 	-0.96875 	0.5 	-81.5353
1 	-0.96875 	0.5 	-81.4445
1.01562 	-0.96875 	0.5 	-81.3755
1.03125 	-0.96875 	0.5 	-81.3013
1.04688 	-0.96875 	0.5 	-81.2408
1.0625 	-0.96875 	0.5 	-81.1673
1.07812 	-0.96875 	0.5 	-81.0708
1.09375 	-0.96875 	0.5 	-80.9689
1.10938 	-0.96875 	0.5 	-80.8759
1.125 	-0.96875 	0.5 	-80.7874
1.14062 	-0.96875 	0.5 	-80.7064
1.15625 	-0.96875 	0.5 	-80.6276
1.17188 	-0.96875 	0.5 	-80.549
1.1875 	-0.96875 	0.5 	-80.4669
1.20312 	-0.96875 	0.5 	-80.3794
1.21875 	-0.96875 	0.5 	-80.2918
1.23438 	-0.96875 	0.5 	-80.2075
1.25 	-0.96875 	0.5 	-80.1395
1.26562 	-0.96875 	0.5 	-80.0638
1.28125 	-0.96875 	0.5 	-79.9878
1.29688 	-0.96875 	0.5 	-79.9133
1.3125 	-0.96875 	0.5 	-79.8327
1.32812 	-0.96875 	0.5 	-79.7501
1.34375 	-0.96875 	0.5 	-79.6663
1.35938 	-0.96875 	0.5 	-79.5961
1.375 	-0.96875 	0.5 	-79.527
1.39062 	-0.96875 	0.5 	-79.457
1.40625 	-0.96875 	0.5 	-79.3873
1.42188 	-0.96875 	0.5 	-79.3259
1.4375 	-0.96875 	0.5 	-79.259
1.45312 	-0.96875 	0.5 	-79.192
1.46875 	-0.96875 	0.5 	-79.1294
1.48438 	-0.96875 	0.5 	-79.0735
-0.5 	-0.953125 	0.5 	-75.6288
-0.484375 	-0.953125 	0.5 	-75.7011
-0.46875 	-0.953125 	0.5 	-75.7831
-0.453125 	-0.953125 	0.5 	-75.8629
-0.4375 	-0.953125 	0.5 	-75.9318
-0.421875 	-0.953125 	0.5 	-76.0323
-0.40625 	-0.953125 	0.5 	-76.119
-0.390625 	-0.953125 	0.5 	-76.2137
-0.375 	-0.953125 	0.5 	-76.2952
-0.359375 	-0.953125 	0.5 	-76.4004
-0.34375 	-0.953125 	0.5 	-76.4942
-0.328125 	-0.953125 	0.5 	-76.6142
-0.3125 	-0.953125 	0.5 	-76.7321
-0.296875 	-0.953125 	0.5 	-76.8347
-0.28125 	-0.953125 	0.5 	-76.9185
-0.265625 	-0.953125 	0.5 	-77.0873
-0.25 	-0.953125 	0.5 	-77.2204
-0.234375 	-0.953125 	0.5 	-77.3252
-0.21875 	-0.953125 	0.5 	-77.4338
-0.203125 	-0.953125 	0.5 	-77.6347
-0.1875 	-0.953125 	0.5 	-77.7695
-0.171875 	-0.953125 	0.5 	-77.9003
-0.15625 	-0.953125 	0.5 	-78.0055
-0.140625 	-0.953125 	0.5 	-78.1501
-0.125 	-0.953125 	0.5 	-78.2898
-0.109375 	-0.953125 	0.5 	-78.4409
-0.09375 	-0.953125 	0.5 	-78.5872
-0.078125 	-0.953125 	0.5 	-78.7364
-0.0625 	-0.953125 	0.5 	-78.8912
-0.046875 	-0.953125 	0.5 	-79.005
-0.03125 	-0.953125 	0.5 	-79.1388
-0.015625 	-0.953125 	0.5 	-79.2908
0 	-0.953125 	0.5 	-79.4641
0.015625 	-0.953125 	0.5 	-79.6569
0.03125 	-0.953125 	0.5 	-79.7747
0.046875 	-0.953125 	0.5 	-79.9103
0.0625 	-0.953125 	0.5 	-80.054
0.078125 	-0.953125 	0.5 	-80.2098
0.09375 	-0.953125 	0.5 	-80.3762
0.109375 	-0.953125 	0.5 	-80.5094
0.125 	-0.953125 	0.5 	-80.6413
0.140625 	-0.953125 	0.5 	-80.7728
0.15625 	-0.953125 	0.5 	-80.9096
0.171875 	-0.953125 	0.5 	-81.0446
0.1875 	-0.953125 	0.5 	-81.1871
0.203125 	-0.953125 	0.5 	-81.3014
0.21875 	-0.953125 	0.5 	-81.4265
0.234375 	-0.953125 	0.5 	-81.529
0.25 	-0.953125 	0.5 	-81.6264
0.265625 	-0.953125 	0.5 	-81.7334
0.28125 	-0.953125 	0.5 	-81.8577
0.296875 	-0.953125 	0.5 	-81.9596
0.3125 	-0.953125 	0.5 	-82.0531
0.328125 	-0.953125 	0.5 	-82.0772
0.34375 	-0.953125 	0.5 	-82.2032
0.359375 	-0.953125 	0.5 	-82.2833
0.375 	-0.953125 	0.5 	-82.3614
0.390625 	-0.953125 	0.5 	-82.441
0.40625 	-0.953125 	0.5 	-82.4884
0.421875 	-0.953125 	0.5 	-82.5448
0.4375 	-0.953125 	0.5 	-82.5974
0.453125 	-0.953125 	0.5 	-82.653
0.46875 	-0.953125 	0.5 	-82.6637
0.484375 	-0.953125 	0.5 	-82.7288
0.5 	-0.953125 	0.5 	-82.7681
0.515625 	-0.953125 	0.5 	-82.8009
0.53125 	-0.953125 	0.5 	-82.8296
0.546875 	-0.953125 	0.5 	-82.8486
0.5625 	-0.953125 	0.5 	-82.8357
0.578125 	-0.953125 	0.5 	-82.8353
0.59375 	-0.953125 	0.5 	-82.8279
0.609375 	-0.953125 	0.5 	-82.8218
0.625 	-0.953125 	0.5 	-82.8391
0.640625 	-0.953125 	0.5 	-82.8213
0.65625 	-0.953125 	0.5 	-82.8188
0.671875 	-0.953125 	0.5 	-82.7887
0.6875 	-0.953125 	0.5 	-82.7926
0.703125 	-0.953125 	0.5 	-82.7549
0.71875 	-0.953125 	0.5 	-82.6798
0.734375 	-0.953125 	0.5 	-82.6254
0.75 	-0.953125 	0.5 	-82.5889
0.765625 	-0.953125 	0.5 	-82.5521
0.78125 	-0.953125 	0.5 	-82.5073
0.796875 	-0.953125 	0.5 	-82.4584
0.8125 	-0.953125 	0.5 	-82.3955
0.828125 	-0.953125 	0.5 	-82.3432
0.84375 	-0.953125 	0.5 	-82.2907
0.859375 	-0.953125 	0.5 	-82.23
0.875 	-0.953125 	0.5 	-82.1664
0.890625 	-0.953125 	0.5 	-82.0846
0.90625 	-0.953125 	0.5 	-82
0.921875 	-0.953125 	0.5 	-81.9233
0.9375 	-0.953125 	0.5 	-81.8516
0.953125 	-0.953125 	0.5 	-81.7659
0.96875 	-0.953125 	0.5 	-81.6525
0.984375 	-0.953125 	0.5 	-81.5979
1 	-0.953125 	0.5 	-81.5173
1.01562 	-0.953125 	0.5 	-81.4454
1.03125 	-0.953125 	0.5 	-81.3622
1.04688 	-0.953125 	0.5 	-81.3093
1.0625 	-0.953125 	0.5 	-81.2363
1.07812 	-0.953125 	0.5 	-81.1346
1.09375 	-0.953125 	0.5 	-81.0281
1.10938 	-0.953125 	0.5 	-80.9349
1.125 	-0.953125 	0.5 	-80.8394
1.14062 	-0.953125 	0.5 	-80.7436
1.15625 	-0.953125 	0.5 	-80.6537
1.17188 	-0.953125 	0.5 	-80.58
1.1875 	-0.953125 	0.5 	-80.4967
1.20312 	-0.953125 	0.5 	-80.4388
1.21875 	-0.953125 	0.5 	-80.3422
1.23438 	-0.953125 	0.5 	-80.2311
1.25 	-0.953125 	0.5 	-80.1412
1.26562 	-0.953125 	0.5 	-80.0704
1.28125 	-0.953125 	0.5 	-79.9968
1.29688 	-0.953125 	0.5 	-79.9144
1.3125 	-0.953125 	0.5 	-79.8311
1.32812 	-0.953125 	0.5 	-79.752
1.34375 	-0.953125 	0.5 	-79.6746
1.35938 	-0.953125 	0.5 	-79.5946
1.375 	-0.953125 	0.5 	-79.5237
1.39062 	-0.953125 	0.5 	-79.4529
1.40625 	-0.953125 	0.5 	-79.3821
1.42188 	-0.953125 	0.5 	-79.3131
1.4375 	-0.953125 	0.5 	-79.2497
1.45312 	-0.953125 	0.5 	-79.1872
1.46875 	-0.953125 	0.5 	-79.1223
1.48438 	-0.953125 	0.5 	-79.0618
-0.5 	-0.9375 	0.5 	-75.5422
-0.484375 	-0.9375 	0.5 	-75.6095
-0.46875 	-0.9375 	0.5 	-75.693
-0.453125 	-0.9375 	0.5 	-75.7793
-0.4375 	-0.9375 	0.5 	-75.859
-0.421875 	-0.9375 	0.5 	-75.9503
-0.40625 	-0.9375 	0.5 	-76.0456
-0.390625 	-0.9375 	0.5 	-76.1248
-0.375 	-0.9375 	0.5 	-76.2324
-0.359375 	-0.9375 	0.5 	-76.3282
-0.34375 	-0.9375 	0.5 	-76.4371
-0.328125 	-0.9375 	0.5 	-76.5448
-0.3125 	-0.9375 	0.5 	-76.6648
-0.296875 	-0.9375 	0.5 	-76.7844
-0.28125 	-0.9375 	0.5 	-76.8817
-0.265625 	-0.9375 	0.5 	-77.0695
-0.25 	-0.9375 	0.5 	-77.1655
-0.234375 	-0.9375 	0.5 	-77.3128
-0.21875 	-0.9375 	0.5 	-77.429
-0.203125 	-0.9375 	0.5 	-77.6542
-0.1875 	-0.9375 	0.5 	-77.7285
-0.171875 	-0.9375 	0.5 	-77.9208
-0.15625 	-0.9375 	0.5 	-78.0195
-0.140625 	-0.9375 	0.5 	-78.1349
-0.125 	-0.9375 	0.5 	-78.287
-0.109375 	-0.9375 	0.5 	-78.4398
-0.09375 	-0.9375 	0.5 	-78.629
-0.078125 	-0.9375 	0.5 	-78.7711
-0.0625 	-0.9375 	0.5 	-78.897
-0.046875 	-0.9375 	0.5 	-79.0243
-0.03125 	-0.9375 	0.5 	-79.1516
-0.015625 	-0.9375 	0.5 	-79.3171
0 	-0.9375 	0.5 	-79.6433
0.015625 	-0.9375 	0.5 	-79.7122
0.03125 	-0.9375 	0.5 	-79.8408
0.046875 	-0.9375 	0.5 	-79.9579
0.0625 	-0.9375 	0.5 	-80.1369
0.078125 	-0.9375 	0.5 	-80.2804
0.09375 	-0.9375 	0.5 	-80.4317
0.109375 	-0.9375 	0.5 	-80.5805
0.125 	-0.9375 	0.5 	-80.7104
0.140625 	-0.9375 	0.5 	-80.863
0.15625 	-0.9375 	0.5 	-81.0005
0.171875 	-0.9375 	0.5 	-81.1376
0.1875 	-0.9375 	0.5 	-81.2885
0.203125 	-0.9375 	0.5 	-81.3968
0.21875 	-0.9375 	0.5 	-81.5357
0.234375 	-0.9375 	0.5 	-81.6458
0.25 	-0.9375 	0.5 	-81.7431
0.265625 	-0.9375 	0.5 	-81.8356
0.28125 	-0.9375 	0.5 	-81.9828
0.296875 	-0.9375 	0.5 	-82.0916
0.3125 	-0.9375 	0.5 	-82.1804
0.328125 	-0.9375 	0.5 	-82.2362
0.34375 	-0.9375 	0.5 	-82.3351
0.359375 	-0.9375 	0.5 	-82.4385
0.375 	-0.9375 	0.5 	-82.507
0.390625 	-0.9375 	0.5 	-82.5802
0.40625 	-0.9375 	0.5 	-82.6095
0.421875 	-0.9375 	0.5 	-82.7012
0.4375 	-0.9375 	0.5 	-82.7568
0.453125 	-0.9375 	0.5 	-82.8073
0.46875 	-0.9375 	0.5 	-82.8405
0.484375 	-0.9375 	0.5 	-82.8865
0.5 	-0.9375 	0.5 	-82.9357
0.515625 	-0.9375 	0.5 	-82.9462
0.53125 	-0.9375 	0.5 	-82.9628
0.546875 	-0.9375 	0.5 	-82.9903
0.5625 	-0.9375 	0.5 	-82.9928
0.578125 	-0.9375 	0.5 	-82.9833
0.59375 	-0.9375 	0.5 	-82.9703
0.609375 	-0.9375 	0.5 	-82.9725
0.625 	-0.9375 	0.5 	-82.9956
0.640625 	-0.9375 	0.5 	-82.9706
0.65625 	-0.9375 	0.5 	-82.9546
0.671875 	-0.9375 	0.5 	-82.9118
0.6875 	-0.9375 	0.5 	-82.9371
0.703125 	-0.9375 	0.5 	-82.8858
0.71875 	-0.9375 	0.5 	-82.8001
0.734375 	-0.9375 	0.5 	-82.7478
0.75 	-0.9375 	0.5 	-82.7154
0.765625 	-0.9375 	0.5 	-82.6669
0.78125 	-0.9375 	0.5 	-82.6187
0.796875 	-0.9375 	0.5 	-82.5673
0.8125 	-0.9375 	0.5 	-82.5146
0.828125 	-0.9375 	0.5 	-82.4619
0.84375 	-0.9375 	0.5 	-82.4013
0.859375 	-0.9375 	0.5 	-82.3349
0.875 	-0.9375 	0.5 	-82.2685
0.890625 	-0.9375 	0.5 	-82.1816
0.90625 	-0.9375 	0.5 	-82.0941
0.921875 	-0.9375 	0.5 	-82.0119
0.9375 	-0.9375 	0.5 	-81.9219
0.953125 	-0.9375 	0.5 	-81.8332
0.96875 	-0.9375 	0.5 	-81.7473
0.984375 	-0.9375 	0.5 	-81.7048
1 	-0.9375 	0.5 	-81.62
1.01562 	-0.9375 	0.5 	-81.508
1.03125 	-0.9375 	0.5 	-81.4298
1.04688 	-0.9375 	0.5 	-81.3761
1.0625 	-0.9375 	0.5 	-81.2764
1.07812 	-0.9375 	0.5 	-81.1954
1.09375 	-0.9375 	0.5 	-81.0793
1.10938 	-0.9375 	0.5 	-80.9546
1.125 	-0.9375 	0.5 	-80.8767
1.14062 	-0.9375 	0.5 	-80.7839
1.15625 	-0.9375 	0.5 	-80.6747
1.17188 	-0.9375 	0.5 	-80.6138
1.1875 	-0.9375 	0.5 	-80.5131
1.20312 	-0.9375 	0.5 	-80.449
1.21875 	-0.9375 	0.5 	-80.341
1.23438 	-0.9375 	0.5 	-80.2467
1.25 	-0.9375 	0.5 	-80.1574
1.26562 	-0.9375 	0.5 	-80.0707
1.28125 	-0.9375 	0.5 	-79.9938
1.29688 	-0.9375 	0.5 	-79.9155
1.3125 	-0.9375 	0.5 	-79.8329
1.32812 	-0.9375 	0.5 	-79.7565
1.34375 	-0.9375 	0.5 	-79.6818
1.35938 	-0.9375 	0.5 	-79.5912
1.375 	-0.9375 	0.5 	-79.5097
1.39062 	-0.9375 	0.5 	-79.4448
1.40625 	-0.9375 	0.5 	-79.3723
1.42188 	-0.9375 	0.5 	-79.2973
1.4375 	-0.9375 	0.5 	-79.2295
1.45312 	-0.9375 	0.5 	-79.1675
1.46875 	-0.9375 	0.5 	-79.1079
1.48438 	-0.9375 	0.5 	-79.0425
-0.5 	-0.921875 	0.5 	-75.4461
-0.484375 	-0.921875 	0.5 	-75.5149
-0.46875 	-0.921875 	0.5 	-75.5943
-0.453125 	-0.921875 	0.5 	-75.6842
-0.4375 	-0.921875 	0.5 	-75.7744
-0.421875 	-0.921875 	0.5 	-75.8735
-0.40625 	-0.921875 	0.5 	-75.9613
-0.390625 	-0.921875 	0.5 	-76.0219
-0.375 	-0.921875 	0.5 	-76.1397
-0.359375 	-0.921875 	0.5 	-76.2542
-0.34375 	-0.921875 	0.5 	-76.3607
-0.328125 	-0.921875 	0.5 	-76.4661
-0.3125 	-0.921875 	0.5 	-76.5778
-0.296875 	-0.921875 	0.5 	-76.7068
-0.28125 	-0.921875 	0.5 	-76.8257
-0.265625 	-0.921875 	0.5 	-76.9673
-0.25 	-0.921875 	0.5 	-77.1107
-0.234375 	-0.921875 	0.5 	-77.2149
-0.21875 	-0.921875 	0.5 	-77.3091
-0.203125 	-0.921875 	0.5 	-77.5416
-0.1875 	-0.921875 	0.5 	-77.6875
-0.171875 	-0.921875 	0.5 	-77.8265
-0.15625 	-0.921875 	0.5 	-77.9531
-0.140625 	-0.921875 	0.5 	-78.1105
-0.125 	-0.921875 	0.5 	-78.2877
-0.109375 	-0.921875 	0.5 	-78.4396
-0.09375 	-0.921875 	0.5 	-78.6169
-0.078125 	-0.921875 	0.5 	-78.7505
-0.0625 	-0.921875 	0.5 	-78.876
-0.046875 	-0.921875 	0.5 	-79.0342
-0.03125 	-0.921875 	0.5 	-79.1984
-0.015625 	-0.921875 	0.5 	-79.4076
0 	-0.921875 	0.5 	-79.5925
0.015625 	-0.921875 	0.5 	-79.7452
0.03125 	-0.921875 	0.5 	-79.86
0.046875 	-0.921875 	0.5 	-80.016
0.0625 	-0.921875 	0.5 	-80.1801
0.078125 	-0.921875 	0.5 	-80.3426
0.09375 	-0.921875 	0.5 	-80.5031
0.109375 	-0.921875 	0.5 	-80.6565
0.125 	-0.921875 	0.5 	-80.81
0.140625 	-0.921875 	0.5 	-80.9544
0.15625 	-0.921875 	0.5 	-81.0898
0.171875 	-0.921875 	0.5 	-81.2278
0.1875 	-0.921875 	0.5 	-81.3852
0.203125 	-0.921875 	0.5 	-81.551
0.21875 	-0.921875 	0.5 	-81.6471
0.234375 	-0.921875 	0.5 	-81.7887
0.25 	-0.921875 	0.5 	-81.8734
0.265625 	-0.921875 	0.5 	-82.0039
0.28125 	-0.921875 	0.5 	-82.1126
0.296875 	-0.921875 	0.5 	-82.1966
0.3125 	-0.921875 	0.5 	-82.2856
0.328125 	-0.921875 	0.5 	-82.3854
0.34375 	-0.921875 	0.5 	-82.4772
0.359375 	-0.921875 	0.5 	-82.5757
0.375 	-0.921875 	0.5 	-82.6532
0.390625 	-0.921875 	0.5 	-82.7301
0.40625 	-0.921875 	0.5 	-82.787
0.421875 	-0.921875 	0.5 	-82.848
0.4375 	-0.921875 	0.5 	-82.8925
0.453125 	-0.921875 	0.5 	-82.9349
0.46875 	-0.921875 	0.5 	-83.0034
0.484375 	-0.921875 	0.5 	-83.0441
0.5 	-0.921875 	0.5 	-83.0681
0.515625 	-0.921875 	0.5 	-83.0917
0.53125 	-0.921875 	0.5 	-83.1164
0.546875 	-0.921875 	0.5 	-83.1399
0.5625 	-0.921875 	0.5 	-83.1303
0.578125 	-0.921875 	0.5 	-83.1509
0.59375 	-0.921875 	0.5 	-83.1431
0.609375 	-0.921875 	0.5 	-83.127
0.625 	-0.921875 	0.5 	-83.1078
0.640625 	-0.921875 	0.5 	-83.0955
0.65625 	-0.921875 	0.5 	-83.0886
0.671875 	-0.921875 	0.5 	-83.0649
0.6875 	-0.921875 	0.5 	-83.0457
0.703125 	-0.921875 	0.5 	-83.0129
0.71875 	-0.921875 	0.5 	-82.9258
0.734375 	-0.921875 	0.5 	-82.8948
0.75 	-0.921875 	0.5 	-82.8395
0.765625 	-0.921875 	0.5 	-82.7985
0.78125 	-0.921875 	0.5 	-82.7487
0.796875 	-0.921875 	0.5 	-82.6836
0.8125 	-0.921875 	0.5 	-82.6296
0.828125 	-0.921875 	0.5 	-82.5804
0.84375 	-0.921875 	0.5 	-82.5066
0.859375 	-0.921875 	0.5 	-82.4454
0.875 	-0.921875 	0.5 	-82.3705
0.890625 	-0.921875 	0.5 	-82.2837
0.90625 	-0.921875 	0.5 	-82.196
0.921875 	-0.921875 	0.5 	-82.1095
0.9375 	-0.921875 	0.5 	-82.0203
0.953125 	-0.921875 	0.5 	-81.9306
0.96875 	-0.921875 	0.5 	-81.8401
0.984375 	-0.921875 	0.5 	-81.7551
1 	-0.921875 	0.5 	-81.6659
1.01562 	-0.921875 	0.5 	-81.5795
1.03125 	-0.921875 	0.5 	-81.4952
1.04688 	-0.921875 	0.5 	-81.4261
1.0625 	-0.921875 	0.5 	-81.3537
1.07812 	-0.921875 	0.5 	-81.2268
1.09375 	-0.921875 	0.5 	-81.1354
1.10938 	-0.921875 	0.5 	-81.0103
1.125 	-0.921875 	0.5 	-80.9144
1.14062 	-0.921875 	0.5 	-80.8193
1.15625 	-0.921875 	0.5 	-80.7258
1.17188 	-0.921875 	0.5 	-80.6373
1.1875 	-0.921875 	0.5 	-80.5436
1.20312 	-0.921875 	0.5 	-80.4488
1.21875 	-0.921875 	0.5 	-80.3581
1.23438 	-0.921875 	0.5 	-80.2582
1.25 	-0.921875 	0.5 	-80.1693
1.26562 	-0.921875 	0.5 	-80.087
1.28125 	-0.921875 	0.5 	-80.0006
1.29688 	-0.921875 	0.5 	-79.9166
1.3125 	-0.921875 	0.5 	-79.839
1.32812 	-0.921875 	0.5 	-79.7623
1.34375 	-0.921875 	0.5 	-79.6828
1.35938 	-0.921875 	0.5 	-79.59
1.375 	-0.921875 	0.5 	-79.5083
1.39062 	-0.921875 	0.5 	-79.4381
1.40625 	-0.921875 	0.5 	-79.352
1.42188 	-0.921875 	0.5 	-79.2816
1.4375 	-0.921875 	0.5 	-79.2151
1.45312 	-0.921875 	0.5 	-79.1551
1.46875 	-0.921875 	0.5 	-79.0924
1.48438 	-0.921875 	0.5 	-79.0213
-0.5 	-0.90625 	0.5 	-75.3488
-0.484375 	-0.90625 	0.5 	-75.4226
-0.46875 	-0.90625 	0.5 	-75.5079
-0.453125 	-0.90625 	0.5 	-75.5953
-0.4375 	-0.90625 	0.5 	-75.6892
-0.421875 	-0.90625 	0.5 	-75.7812
-0.40625 	-0.90625 	0.5 	-75.875
-0.390625 	-0.90625 	0.5 	-75.9701
-0.375 	-0.90625 	0.5 	-76.0696
-0.359375 	-0.90625 	0.5 	-76.168
-0.34375 	-0.90625 	0.5 	-76.2749
-0.328125 	-0.90625 	0.5 	-76.3828
-0.3125 	-0.90625 	0.5 	-76.5193
-0.296875 	-0.90625 	0.5 	-76.6501
-0.28125 	-0.90625 	0.5 	-76.7706
-0.265625 	-0.90625 	0.5 	-76.9123
-0.25 	-0.90625 	0.5 	-77.045
-0.234375 	-0.90625 	0.5 	-77.1728
-0.21875 	-0.90625 	0.5 	-77.3268
-0.203125 	-0.90625 	0.5 	-77.4634
-0.1875 	-0.90625 	0.5 	-77.6138
-0.171875 	-0.90625 	0.5 	-77.7621
-0.15625 	-0.90625 	0.5 	-77.9187
-0.140625 	-0.90625 	0.5 	-78.084
-0.125 	-0.90625 	0.5 	-78.2273
-0.109375 	-0.90625 	0.5 	-78.4277
-0.09375 	-0.90625 	0.5 	-78.6016
-0.078125 	-0.90625 	0.5 	-78.7329
-0.0625 	-0.90625 	0.5 	-78.8803
-0.046875 	-0.90625 	0.5 	-79.0277
-0.03125 	-0.90625 	0.5 	-79.2424
-0.015625 	-0.90625 	0.5 	-79.4315
0 	-0.90625 	0.5 	-79.6114
0.015625 	-0.90625 	0.5 	-79.7796
0.03125 	-0.90625 	0.5 	-79.9028
0.046875 	-0.90625 	0.5 	-80.0724
0.0625 	-0.90625 	0.5 	-80.2382
0.078125 	-0.90625 	0.5 	-80.4083
0.09375 	-0.90625 	0.5 	-80.5736
0.109375 	-0.90625 	0.5 	-80.7366
0.125 	-0.90625 	0.5 	-80.8941
0.140625 	-0.90625 	0.5 	-81.0456
0.15625 	-0.90625 	0.5 	-81.1897
0.171875 	-0.90625 	0.5 	-81.3313
0.1875 	-0.90625 	0.5 	-81.4768
0.203125 	-0.90625 	0.5 	-81.6171
0.21875 	-0.90625 	0.5 	-81.7585
0.234375 	-0.90625 	0.5 	-81.8545
0.25 	-0.90625 	0.5 	-81.9741
0.265625 	-0.90625 	0.5 	-82.1354
0.28125 	-0.90625 	0.5 	-82.2538
0.296875 	-0.90625 	0.5 	-82.3643
0.3125 	-0.90625 	0.5 	-82.4349
0.328125 	-0.90625 	0.5 	-82.5236
0.34375 	-0.90625 	0.5 	-82.6168
0.359375 	-0.90625 	0.5 	-82.7093
0.375 	-0.90625 	0.5 	-82.7906
0.390625 	-0.90625 	0.5 	-82.8719
0.40625 	-0.90625 	0.5 	-82.9416
0.421875 	-0.90625 	0.5 	-83.0289
0.4375 	-0.90625 	0.5 	-83.0756
0.453125 	-0.90625 	0.5 	-83.0821
0.46875 	-0.90625 	0.5 	-83.1459
0.484375 	-0.90625 	0.5 	-83.2198
0.5 	-0.90625 	0.5 	-83.2027
0.515625 	-0.90625 	0.5 	-83.2319
0.53125 	-0.90625 	0.5 	-83.2643
0.546875 	-0.90625 	0.5 	-83.2759
0.5625 	-0.90625 	0.5 	-83.2739
0.578125 	-0.90625 	0.5 	-83.3081
0.59375 	-0.90625 	0.5 	-83.2947
0.609375 	-0.90625 	0.5 	-83.2871
0.625 	-0.90625 	0.5 	-83.2374
0.640625 	-0.90625 	0.5 	-83.2379
0.65625 	-0.90625 	0.5 	-83.2197
0.671875 	-0.90625 	0.5 	-83.2043
0.6875 	-0.90625 	0.5 	-83.1768
0.703125 	-0.90625 	0.5 	-83.104
0.71875 	-0.90625 	0.5 	-83.1017
0.734375 	-0.90625 	0.5 	-83.0509
0.75 	-0.90625 	0.5 	-82.977
0.765625 	-0.90625 	0.5 	-82.9363
0.78125 	-0.90625 	0.5 	-82.8607
0.796875 	-0.90625 	0.5 	-82.7974
0.8125 	-0.90625 	0.5 	-82.7467
0.828125 	-0.90625 	0.5 	-82.7005
0.84375 	-0.90625 	0.5 	-82.6234
0.859375 	-0.90625 	0.5 	-82.5457
0.875 	-0.90625 	0.5 	-82.4703
0.890625 	-0.90625 	0.5 	-82.3882
0.90625 	-0.90625 	0.5 	-82.3003
0.921875 	-0.90625 	0.5 	-82.2083
0.9375 	-0.90625 	0.5 	-82.1142
0.953125 	-0.90625 	0.5 	-82.0252
0.96875 	-0.90625 	0.5 	-81.9433
0.984375 	-0.90625 	0.5 	-81.8587
1 	-0.90625 	0.5 	-81.7792
1.01562 	-0.90625 	0.5 	-81.6591
1.03125 	-0.90625 	0.5 	-81.5233
1.04688 	-0.90625 	0.5 	-81.4177
1.0625 	-0.90625 	0.5 	-81.3419
1.07812 	-0.90625 	0.5 	-81.2607
1.09375 	-0.90625 	0.5 	-81.1576
1.10938 	-0.90625 	0.5 	-81.0576
1.125 	-0.90625 	0.5 	-80.9554
1.14062 	-0.90625 	0.5 	-80.8626
1.15625 	-0.90625 	0.5 	-80.7698
1.17188 	-0.90625 	0.5 	-80.6668
1.1875 	-0.90625 	0.5 	-80.5604
1.20312 	-0.90625 	0.5 	-80.4708
1.21875 	-0.90625 	0.5 	-80.3647
1.23438 	-0.90625 	0.5 	-80.2675
1.25 	-0.90625 	0.5 	-80.178
1.26562 	-0.90625 	0.5 	-80.0964
1.28125 	-0.90625 	0.5 	-80.0292
1.29688 	-0.90625 	0.5 	-79.9202
1.3125 	-0.90625 	0.5 	-79.8283
1.32812 	-0.90625 	0.5 	-79.7474
1.34375 	-0.90625 	0.5 	-79.6667
1.35938 	-0.90625 	0.5 	-79.5868
1.375 	-0.90625 	0.5 	-79.5042
1.39062 	-0.90625 	0.5 	-79.4236
1.40625 	-0.90625 	0.5 	-79.3431
1.42188 	-0.90625 	0.5 	-79.266
1.4375 	-0.90625 	0.5 	-79.2023
1.45312 	-0.90625 	0.5 	-79.1381
1.46875 	-0.90625 	0.5 	-79.0722
1.48438 	-0.90625 	0.5 	-79.0021
-0.5 	-0.890625 	0.5 	-75.2577
-0.484375 	-0.890625 	0.5 	-75.3311
-0.46875 	-0.890625 	0.5 	-75.4249
-0.453125 	-0.890625 	0.5 	-75.5103
-0.4375 	-0.890625 	0.5 	-75.6039
-0.421875 	-0.890625 	0.5 	-75.6958
-0.40625 	-0.890625 	0.5 	-75.7826
-0.390625 	-0.890625 	0.5 	-75.885
-0.375 	-0.890625 	0.5 	-75.9831
-0.359375 	-0.890625 	0.5 	-76.0819
-0.34375 	-0.890625 	0.5 	-76.191
-0.328125 	-0.890625 	0.5 	-76.315
-0.3125 	-0.890625 	0.5 	-76.4535
-0.296875 	-0.890625 	0.5 	-76.5942
-0.28125 	-0.890625 	0.5 	-76.7158
-0.265625 	-0.890625 	0.5 	-76.8174
-0.25 	-0.890625 	0.5 	-76.9588
-0.234375 	-0.890625 	0.5 	-77.0831
-0.21875 	-0.890625 	0.5 	-77.2427
-0.203125 	-0.890625 	0.5 	-77.4145
-0.1875 	-0.890625 	0.5 	-77.5804
-0.171875 	-0.890625 	0.5 	-77.7539
-0.15625 	-0.890625 	0.5 	-77.9046
-0.140625 	-0.890625 	0.5 	-78.0575
-0.125 	-0.890625 	0.5 	-78.2384
-0.109375 	-0.890625 	0.5 	-78.4259