-0.5 	-1 	0.5 	39.8946 	-0.54563 	3.04777e-19
-0.484375 	-1 	0.5 	39.9036 	-0.555884 	1.52367e-18
-0.46875 	-1 	0.5 	39.9123 	-0.565114 	2.12747e-19
-0.453125 	-1 	0.5 	39.9233 	-0.573603 	-1.53605e-19
-0.4375 	-1 	0.5 	39.9324 	-0.582442 	-4.53012e-19
-0.421875 	-1 	0.5 	39.9427 	-0.590054 	-8.89649e-19
-0.40625 	-1 	0.5 	39.9534 	-0.597436 	-2.22582e-18
-0.390625 	-1 	0.5 	39.9661 	-0.604455 	2.08942e-19
-0.375 	-1 	0.5 	39.9786 	-0.612607 	7.31241e-19
-0.359375 	-1 	0.5 	39.991 	-0.620271 	8.20478e-20
-0.34375 	-1 	0.5 	40.0051 	-0.62738 	5.14992e-20
-0.328125 	-1 	0.5 	40.0198 	-0.634567 	7.47333e-20
-0.3125 	-1 	0.5 	40.0337 	-0.642531 	-2.07662e-19
-0.296875 	-1 	0.5 	40.0471 	-0.646258 	3.69882e-19
-0.28125 	-1 	0.5 	40.0617 	-0.650468 	6.87957e-19
-0.265625 	-1 	0.5 	40.0759 	-0.655665 	1.45982e-18
-0.25 	-1 	0.5 	40.0914 	-0.659305 	1.28326e-18
-0.234375 	-1 	0.5 	40.1069 	-0.662885 	2.41977e-18
-0.21875 	-1 	0.5 	40.1232 	-0.66792 	2.08296e-18
-0.203125 	-1 	0.5 	40.1401 	-0.672918 	9.75283e-19
-0.1875 	-1 	0.5 	40.1584 	-0.675407 	7.01499e-19
-0.171875 	-1 	0.5 	40.1768 	-0.677082 	1.01249e-18
-0.15625 	-1 	0.5 	40.1947 	-0.682794 	1.09959e-18
-0.140625 	-1 	0.5 	40.2148 	-0.682557 	-8.50887e-19
-0.125 	-1 	0.5 	40.2339 	-0.682971 	-1.92683e-18
-0.109375 	-1 	0.5 	40.2476 	-0.680055 	7.01738e-21
-0.09375 	-1 	0.5 	40.2645 	-0.676991 	5.44581e-20
-0.078125 	-1 	0.5 	40.2816 	-0.675068 	1.34798e-19
-0.0625 	-1 	0.5 	40.3014 	-0.675951 	2.79564e-19
-0.046875 	-1 	0.5 	40.3207 	-0.672173 	6.87256e-20
-0.03125 	-1 	0.5 	40.3417 	-0.668047 	-1.88406e-18
-0.015625 	-1 	0.5 	40.3585 	-0.66132 	-1.16845e-18
0 	-1 	0.5 	40.3755 	-0.655233 	-8.20298e-19
0.015625 	-1 	0.5 	40.3924 	-0.648896 	-6.6344e-19
0.03125 	-1 	0.5 	40.4105 	-0.643039 	4.12121e-19
0.046875 	-1 	0.5 	40.429 	-0.636914 	1.13726e-18
0.0625 	-1 	0.5 	40.4486 	-0.627592 	-5.56065e-19
0.078125 	-1 	0.5 	40.466 	-0.616538 	-1.09307e-18
0.09375 	-1 	0.5 	40.4839 	-0.605713 	-5.90767e-19
0.109375 	-1 	0.5 	40.5015 	-0.596632 	5.09365e-20
0.125 	-1 	0.5 	40.5161 	-0.58471 	-3.56207e-19
0.140625 	-1 	0.5 	40.5333 	-0.569499 	-3.05368e-18
0.15625 	-1 	0.5 	40.5502 	-0.557871 	-2.03471e-18
0.171875 	-1 	0.5 	40.5632 	-0.546907 	1.19732e-18
0.1875 	-1 	0.5 	40.5774 	-0.531472 	1.23595e-18
0.203125 	-1 	0.5 	40.5929 	-0.516332 	1.04171e-20
0.21875 	-1 	0.5 	40.607 	-0.500785 	-1.34742e-18
0.234375 	-1 	0.5 	40.6197 	-0.484116 	-1.17329e-18
0.25 	-1 	0.5 	40.632 	-0.467054 	-2.20205e-19
0.265625 	-1 	0.5 	40.6443 	-0.451703 	1.26402e-18
0.28125 	-1 	0.5 	40.6553 	-0.4354 	1.11313e-18
0.296875 	-1 	0.5 	40.6664 	-0.419096 	9.62243e-19
0.3125 	-1 	0.5 	40.6778 	-0.400391 	1.45655e-19
0.328125 	-1 	0.5 	40.6891 	-0.380062 	-9.47858e-19
0.34375 	-1 	0.5 	40.6937 	-0.363641 	-1.60827e-19
0.359375 	-1 	0.5 	40.7 	-0.342814 	-4.07853e-19
0.375 	-1 	0.5 	40.7074 	-0.324505 	-1.24228e-19
0.390625 	-1 	0.5 	40.7159 	-0.303259 	4.79155e-19
0.40625 	-1 	0.5 	40.7219 	-0.284944 	1.47638e-18
0.421875 	-1 	0.5 	40.7249 	-0.265693 	-1.27133e-19
0.4375 	-1 	0.5 	40.7263 	-0.245409 	-2.52098e-19
0.453125 	-1 	0.5 	40.7287 	-0.225189 	-1.50332e-19
0.46875 	-1 	0.5 	40.7295 	-0.206448 	-5.95212e-19
0.484375 	-1 	0.5 	40.732 	-0.185781 	-5.59902e-20
0.5 	-1 	0.5 	40.733 	-0.166434 	8.6196e-19
0.515625 	-1 	0.5 	40.7348 	-0.147873 	6.60033e-19
0.53125 	-1 	0.5 	40.7345 	-0.125777 	4.86492e-19
0.546875 	-1 	0.5 	40.732 	-0.105752 	3.60662e-19
0.5625 	-1 	0.5 	40.7291 	-0.0860254 	-1.128e-19
0.578125 	-1 	0.5 	40.7269 	-0.0645543 	-8.11081e-19
0.59375 	-1 	0.5 	40.7222 	-0.0486246 	-1.32019e-19
0.609375 	-1 	0.5 	40.7181 	-0.0304101 	1.62278e-19
0.625 	-1 	0.5 	40.7118 	-0.0124388 	5.74289e-20
0.640625 	-1 	0.5 	40.706 	0.00482232 	-9.72414e-20
0.65625 	-1 	0.5 	40.7005 	0.0220741 	-2.46942e-19
0.671875 	-1 	0.5 	40.6923 	0.0394099 	-3.10999e-19
0.6875 	-1 	0.5 	40.6849 	0.0563686 	-6.65241e-19
0.703125 	-1 	0.5 	40.6764 	0.0746463 	-1.04249e-19
0.71875 	-1 	0.5 	40.6675 	0.0872288 	-5.61209e-20
0.734375 	-1 	0.5 	40.6584 	0.102537 	-3.99111e-19
0.75 	-1 	0.5 	40.6483 	0.116492 	2.94274e-19
0.765625 	-1 	0.5 	40.6382 	0.131454 	7.01759e-20
0.78125 	-1 	0.5 	40.628 	0.143429 	3.27159e-19
0.796875 	-1 	0.5 	40.6178 	0.156121 	2.44677e-19
0.8125 	-1 	0.5 	40.6059 	0.172256 	1.73656e-18
0.828125 	-1 	0.5 	40.5917 	0.17995 	-3.52355e-19
0.84375 	-1 	0.5 	40.5808 	0.191007 	5.93264e-20
0.859375 	-1 	0.5 	40.5688 	0.203018 	-6.82432e-20
0.875 	-1 	0.5 	40.5585 	0.216372 	-1.71562e-19
0.890625 	-1 	0.5 	40.5459 	0.227231 	-3.96239e-20
0.90625 	-1 	0.5 	40.5348 	0.235844 	4.58737e-21
0.921875 	-1 	0.5 	40.5227 	0.243418 	-1.69245e-19
0.9375 	-1 	0.5 	40.5094 	0.250977 	-4.38691e-19
0.953125 	-1 	0.5 	40.4952 	0.258323 	-4.83572e-19
0.96875 	-1 	0.5 	40.4825 	0.264931 	-2.72151e-19
0.984375 	-1 	0.5 	40.4682 	0.271325 	8.98329e-20
1 	-1 	0.5 	40.4568 	0.277673 	2.50636e-19
1.01562 	-1 	0.5 	40.4442 	0.28375 	1.27837e-18
1.03125 	-1 	0.5 	40.4305 	0.288222 	2.39642e-18
1.04688 	-1 	0.5 	40.4161 	0.292026 	4.21421e-19
1.0625 	-1 	0.5 	40.4042 	0.293989 	6.44756e-19
1.07812 	-1 	0.5 	40.3914 	0.299487 	2.10909e-18
1.09375 	-1 	0.5 	40.3783 	0.299774 	8.327e-19
1.10938 	-1 	0.5 	40.3659 	0.302124 	3.00026e-19
1.125 	-1 	0.5 	40.3538 	0.303424 	3.14994e-19
1.14062 	-1 	0.5 	40.3417 	0.304688 	3.90066e-19
1.15625 	-1 	0.5 	40.3294 	0.306115 	6.87113e-19
1.17188 	-1 	0.5 	40.3173 	0.306123 	4.98595e-19
1.1875 	-1 	0.5 	40.3059 	0.306756 	1.15136e-18
1.20312 	-1 	0.5 	40.2943 	0.307162 	1.41079e-18
1.21875 	-1 	0.5 	40.2825 	0.30717 	3.19846e-19
1.23438 	-1 	0.5 	40.2727 	0.304967 	-6.81982e-20
1.25 	-1 	0.5 	40.2621 	0.302744 	-3.81789e-19
1.26562 	-1 	0.5 	40.2527 	0.301282 	-1.08666e-18
1.28125 	-1 	0.5 	40.2411 	0.298588 	-6.96483e-19
1.29688 	-1 	0.5 	40.2297 	0.297391 	-2.0632e-19
1.3125 	-1 	0.5 	40.22 	0.294596 	-1.69358e-19
1.32812 	-1 	0.5 	40.2114 	0.291929 	-3.83745e-19
1.34375 	-1 	0.5 	40.2028 	0.289262 	-5.98131e-19
1.35938 	-1 	0.5 	40.1942 	0.286594 	-8.12518e-19
1.375 	-1 	0.5 	40.1858 	0.283974 	-1.00968e-18
1.39062 	-1 	0.5 	40.1776 	0.28146 	-1.08194e-18
1.40625 	-1 	0.5 	40.1694 	0.278946 	-1.15421e-18
1.42188 	-1 	0.5 	40.1612 	0.276432 	-1.22648e-18
1.4375 	-1 	0.5 	40.1535 	0.273585 	-8.86785e-19
1.45312 	-1 	0.5 	40.1465 	0.268088 	-6.03859e-19
1.46875 	-1 	0.5 	40.1397 	0.261705 	-1.91644e-19
1.48438 	-1 	0.5 	40.1323 	0.258895 	2.83567e-19
-0.5 	-0.984375 	0.5 	39.8856 	-0.555937 	1.79041e-18
-0.484375 	-0.984375 	0.5 	39.8948 	-0.566458 	4.18513e-18
-0.46875 	-0.984375 	0.5 	39.9023 	-0.575642 	6.19859e-19
-0.453125 	-0.984375 	0.5 	39.9137 	-0.582098 	-1.45429e-18
-0.4375 	-0.984375 	0.5 	39.9245 	-0.591597 	-1.10822e-18
-0.421875 	-0.984375 	0.5 	39.9353 	-0.601097 	-7.62149e-19
-0.40625 	-0.984375 	0.5 	39.9459 	-0.608258 	1.18395e-19
-0.390625 	-0.984375 	0.5 	39.9574 	-0.615447 	1.51426e-18
-0.375 	-0.984375 	0.5 	39.9709 	-0.624551 	1.17374e-18
-0.359375 	-0.984375 	0.5 	39.9839 	-0.6328 	2.66169e-19
-0.34375 	-0.984375 	0.5 	39.998 	-0.639909 	2.35722e-19
-0.328125 	-0.984375 	0.5 	40.0128 	-0.647152 	2.4258e-19
-0.3125 	-0.984375 	0.5 	40.0263 	-0.655208 	1.26821e-19
-0.296875 	-0.984375 	0.5 	40.0417 	-0.661632 	3.62645e-20
-0.28125 	-0.984375 	0.5 	40.0583 	-0.665929 	3.71854e-19
-0.265625 	-0.984375 	0.5 	40.0722 	-0.671476 	1.35704e-18
-0.25 	-0.984375 	0.5 	40.0875 	-0.675275 	1.2772e-18
-0.234375 	-0.984375 	0.5 	40.103 	-0.678869 	2.43208e-18
-0.21875 	-0.984375 	0.5 	40.1203 	-0.683789 	2.88164e-19
-0.203125 	-0.984375 	0.5 	40.1368 	-0.689338 	-9.65152e-19
-0.1875 	-0.984375 	0.5 	40.1571 	-0.692938 	-8.46955e-19
-0.171875 	-0.984375 	0.5 	40.1757 	-0.695228 	1.35195e-18
-0.15625 	-0.984375 	0.5 	40.194 	-0.700855 	2.26764e-18
-0.140625 	-0.984375 	0.5 	40.2128 	-0.702915 	2.86729e-18
-0.125 	-0.984375 	0.5 	40.2327 	-0.69983 	-1.08081e-18
-0.109375 	-0.984375 	0.5 	40.2477 	-0.697794 	9.12571e-20
-0.09375 	-0.984375 	0.5 	40.2642 	-0.695431 	1.44314e-19
-0.078125 	-0.984375 	0.5 	40.2824 	-0.697048 	4.07063e-20
-0.0625 	-0.984375 	0.5 	40.3049 	-0.691787 	1.66223e-19
-0.046875 	-0.984375 	0.5 	40.3244 	-0.690029 	1.09558e-19
-0.03125 	-0.984375 	0.5 	40.3455 	-0.68647 	-1.84074e-18
-0.015625 	-0.984375 	0.5 	40.3618 	-0.679275 	-8.47392e-19
0 	-0.984375 	0.5 	40.3808 	-0.674204 	-4.6242e-20
0.015625 	-0.984375 	0.5 	40.3999 	-0.667546 	-7.82991e-19
0.03125 	-0.984375 	0.5 	40.4198 	-0.661447 	2.26896e-19
0.046875 	-0.984375 	0.5 	40.4382 	-0.655396 	1.03558e-18
0.0625 	-0.984375 	0.5 	40.4578 	-0.646048 	-6.52461e-19
0.078125 	-0.984375 	0.5 	40.4751 	-0.634962 	-1.33028e-18
0.09375 	-0.984375 	0.5 	40.493 	-0.624131 	-8.56088e-19
0.109375 	-0.984375 	0.5 	40.5113 	-0.612918 	-8.84196e-19
0.125 	-0.984375 	0.5 	40.5287 	-0.602568 	-4.12555e-19
0.140625 	-0.984375 	0.5 	40.5463 	-0.589026 	-3.77987e-19
0.15625 	-0.984375 	0.5 	40.5641 	-0.575268 	-3.58913e-19
0.171875 	-0.984375 	0.5 	40.5796 	-0.561111 	-2.50943e-19
0.1875 	-0.984375 	0.5 	40.5938 	-0.546452 	-9.27059e-20
0.203125 	-0.984375 	0.5 	40.6086 	-0.530646 	-6.30365e-20
0.21875 	-0.984375 	0.5 	40.6228 	-0.514137 	-1.19311e-20
0.234375 	-0.984375 	0.5 	40.6353 	-0.498785 	6.48077e-21
0.25 	-0.984375 	0.5 	40.6493 	-0.479637 	-1.56858e-19
0.265625 	-0.984375 	0.5 	40.6611 	-0.462718 	-8.79932e-20
0.28125 	-0.984375 	0.5 	40.6733 	-0.449986 	2.38634e-18
0.296875 	-0.984375 	0.5 	40.6844 	-0.43048 	2.78038e-19
0.3125 	-0.984375 	0.5 	40.6948 	-0.410497 	1.95007e-19
0.328125 	-0.984375 	0.5 	40.7053 	-0.389486 	-3.99503e-19
0.34375 	-0.984375 	0.5 	40.7118 	-0.370878 	-8.64535e-20
0.359375 	-0.984375 	0.5 	40.7186 	-0.349802 	-1.52443e-19
0.375 	-0.984375 	0.5 	40.7259 	-0.329024 	-3.07619e-19
0.390625 	-0.984375 	0.5 	40.734 	-0.30854 	-4.83552e-19
0.40625 	-0.984375 	0.5 	40.7412 	-0.289522 	7.68792e-19
0.421875 	-0.984375 	0.5 	40.7455 	-0.27051 	-6.19279e-19
0.4375 	-0.984375 	0.5 	40.7466 	-0.250146 	-6.75423e-19
0.453125 	-0.984375 	0.5 	40.7468 	-0.229418 	-3.99623e-19
0.46875 	-0.984375 	0.5 	40.7487 	-0.208649 	-3.51415e-19
0.484375 	-0.984375 	0.5 	40.7507 	-0.187713 	-1.68465e-19
0.5 	-0.984375 	0.5 	40.7527 	-0.168266 	4.6273e-19
0.515625 	-0.984375 	0.5 	40.7526 	-0.145126 	-1.86679e-19
0.53125 	-0.984375 	0.5 	40.7533 	-0.12461 	1.75406e-19
0.546875 	-0.984375 	0.5 	40.7499 	-0.102959 	-1.46892e-20
0.5625 	-0.984375 	0.5 	40.7482 	-0.0834902 	-2.63444e-20
0.578125 	-0.984375 	0.5 	40.745 	-0.0646591 	5.0552e-19
0.59375 	-0.984375 	0.5 	40.7417 	-0.0458372 	8.62838e-19
0.609375 	-0.984375 	0.5 	40.7358 	-0.0243095 	1.28605e-19
0.625 	-0.984375 	0.5 	40.7298 	-0.00508805 	1.41102e-19
0.640625 	-0.984375 	0.5 	40.7239 	0.0124974 	5.73814e-20
0.65625 	-0.984375 	0.5 	40.7185 	0.0299757 	-3.00601e-19
0.671875 	-0.984375 	0.5 	40.7107 	0.0478286 	-8.66628e-19
0.6875 	-0.984375 	0.5 	40.7016 	0.0646042 	-2.24792e-19
0.703125 	-0.984375 	0.5 	40.6921 	0.0814525 	-2.23383e-19
0.71875 	-0.984375 	0.5 	40.6829 	0.0972559 	-6.01905e-19
0.734375 	-0.984375 	0.5 	40.6735 	0.112619 	-5.14213e-19
0.75 	-0.984375 	0.5 	40.6625 	0.124688 	6.38938e-19
0.765625 	-0.984375 	0.5 	40.6523 	0.144027 	3.36352e-19
0.78125 	-0.984375 	0.5 	40.6424 	0.155674 	2.06809e-19
0.796875 	-0.984375 	0.5 	40.6324 	0.167473 	4.63342e-19
0.8125 	-0.984375 	0.5 	40.6195 	0.179663 	4.67438e-19
0.828125 	-0.984375 	0.5 	40.6033 	0.190114 	1.68619e-19
0.84375 	-0.984375 	0.5 	40.5899 	0.202262 	3.58073e-21
0.859375 	-0.984375 	0.5 	40.5802 	0.215898 	-1.35213e-20
0.875 	-0.984375 	0.5 	40.5678 	0.226596 	-4.16133e-20
0.890625 	-0.984375 	0.5 	40.556 	0.237583 	8.81597e-20
0.90625 	-0.984375 	0.5 	40.5438 	0.249275 	4.18381e-19
0.921875 	-0.984375 	0.5 	40.5308 	0.256669 	1.75328e-19
0.9375 	-0.984375 	0.5 	40.5163 	0.263891 	-2.5237e-19
0.953125 	-0.984375 	0.5 	40.5021 	0.272147 	-3.02917e-19
0.96875 	-0.984375 	0.5 	40.4886 	0.278571 	6.17896e-20
0.984375 	-0.984375 	0.5 	40.4763 	0.285246 	2.18784e-19
1 	-0.984375 	0.5 	40.4629 	0.291466 	3.09952e-19
1.01562 	-0.984375 	0.5 	40.4488 	0.295151 	6.88289e-19
1.03125 	-0.984375 	0.5 	40.4349 	0.299452 	1.48383e-18
1.04688 	-0.984375 	0.5 	40.4205 	0.303338 	1.4933e-18
1.0625 	-0.984375 	0.5 	40.4076 	0.306799 	1.30751e-18
1.07812 	-0.984375 	0.5 	40.3946 	0.30938 	1.03347e-18
1.09375 	-0.984375 	0.5 	40.3813 	0.311465 	4.24746e-19
1.10938 	-0.984375 	0.5 	40.3679 	0.314273 	2.02071e-19
1.125 	-0.984375 	0.5 	40.355 	0.315707 	1.31047e-18
1.14062 	-0.984375 	0.5 	40.3425 	0.317133 	1.86153e-18
1.15625 	-0.984375 	0.5 	40.3307 	0.31876 	-2.17207e-19
1.17188 	-0.984375 	0.5 	40.3173 	0.319541 	3.30798e-19
1.1875 	-0.984375 	0.5 	40.3066 	0.316712 	1.86958e-18
1.20312 	-0.984375 	0.5 	40.2944 	0.316041 	7.37325e-19
1.21875 	-0.984375 	0.5 	40.2828 	0.316274 	5.68422e-19
1.23438 	-0.984375 	0.5 	40.2723 	0.314456 	2.33515e-19
1.25 	-0.984375 	0.5 	40.2608 	0.314467 	-1.22386e-19
1.26562 	-0.984375 	0.5 	40.2511 	0.314723 	-8.54031e-19
1.28125 	-0.984375 	0.5 	40.2399 	0.311743 	-6.34608e-19
1.29688 	-0.984375 	0.5 	40.2283 	0.307463 	-8.07778e-19
1.3125 	-0.984375 	0.5 	40.2172 	0.304492 	-1.81061e-19
1.32812 	-0.984375 	0.5 	40.2094 	0.303954 	-6.89147e-20
1.34375 	-0.984375 	0.5 	40.2008 	0.301664 	-1.97423e-19
1.35938 	-0.984375 	0.5 	40.1914 	0.297552 	-5.7592e-19
1.375 	-0.984375 	0.5 	40.1826 	0.293825 	1.93227e-19
1.39062 	-0.984375 	0.5 	40.1743 	0.29002 	-3.18272e-18
1.40625 	-0.984375 	0.5 	40.1665 	0.286868 	-4.08434e-18
1.42188 	-0.984375 	0.5 	40.1568 	0.285876 	-5.46594e-19
1.4375 	-0.984375 	0.5 	40.1487 	0.280796 	-5.73603e-19
1.45312 	-0.984375 	0.5 	40.1418 	0.274191 	-8.38716e-21
1.46875 	-0.984375 	0.5 	40.135 	0.267612 	4.00366e-19
1.48438 	-0.984375 	0.5 	40.1275 	0.266457 	1.39604e-18
-0.5 	-0.96875 	0.5 	39.8764 	-0.566253 	3.29863e-18
-0.484375 	-0.96875 	0.5 	39.8854 	-0.576541 	4.6573e-18
-0.46875 	-0.96875 	0.5 	39.8929 	-0.585763 	1.26061e-18
-0.453125 	-0.96875 	0.5 	39.9034 	-0.592798 	-1.20038e-18
-0.4375 	-0.96875 	0.5 	39.9142 	-0.602196 	-9.25758e-19
-0.421875 	-0.96875 	0.5 	39.926 	-0.612001 	-5.92084e-19
-0.40625 	-0.96875 	0.5 	39.9373 	-0.62085 	-1.11276e-18
-0.390625 	-0.96875 	0.5 	39.9506 	-0.628973 	-6.33861e-19
-0.375 	-0.96875 	0.5 	39.9645 	-0.637788 	3.07716e-19
-0.359375 	-0.96875 	0.5 	39.978 	-0.645599 	4.9222e-19
-0.34375 	-0.96875 	0.5 	39.9921 	-0.65308 	2.19036e-19
-0.328125 	-0.96875 	0.5 	40.0057 	-0.661017 	7.10508e-20
-0.3125 	-0.96875 	0.5 	40.0204 	-0.669176 	-3.22402e-19
-0.296875 	-0.96875 	0.5 	40.037 	-0.67762 	-4.68983e-19
-0.28125 	-0.96875 	0.5 	40.0503 	-0.681693 	-1.46618e-20
-0.265625 	-0.96875 	0.5 	40.0669 	-0.685752 	2.61187e-19
-0.25 	-0.96875 	0.5 	40.084 	-0.690079 	5.48576e-19
-0.234375 	-0.96875 	0.5 	40.1003 	-0.694911 	5.59795e-21
-0.21875 	-0.96875 	0.5 	40.1168 	-0.700751 	-8.70895e-19
-0.203125 	-0.96875 	0.5 	40.1334 	-0.706686 	-1.62536e-18
-0.1875 	-0.96875 	0.5 	40.1529 	-0.711151 	-9.73961e-19
-0.171875 	-0.96875 	0.5 	40.1728 	-0.714877 	1.00242e-18
-0.15625 	-0.96875 	0.5 	40.1925 	-0.715314 	1.11482e-18
-0.140625 	-0.96875 	0.5 	40.2113 	-0.716288 	1.03147e-18
-0.125 	-0.96875 	0.5 	40.23 	-0.718154 	1.50642e-18
-0.109375 	-0.96875 	0.5 	40.2476 	-0.715836 	1.85696e-19
-0.09375 	-0.96875 	0.5 	40.2657 	-0.716734 	1.06461e-19
-0.078125 	-0.96875 	0.5 	40.286 	-0.714536 	8.23071e-20
-0.0625 	-0.96875 	0.5 	40.3063 	-0.712337 	5.81531e-20
-0.046875 	-0.96875 	0.5 	40.3281 	-0.707886 	1.50389e-19
-0.03125 	-0.96875 	0.5 	40.3472 	-0.702487 	1.63913e-19
-0.015625 	-0.96875 	0.5 	40.3677 	-0.698696 	8.58089e-19
0 	-0.96875 	0.5 	40.387 	-0.693307 	4.56088e-19
0.015625 	-0.96875 	0.5 	40.4044 	-0.686645 	-6.59304e-19
0.03125 	-0.96875 	0.5 	40.4256 	-0.679638 	-8.33363e-19
0.046875 	-0.96875 	0.5 	40.4485 	-0.672846 	-2.28197e-19
0.0625 	-0.96875 	0.5 	40.4669 	-0.664504 	-7.48856e-19
0.078125 	-0.96875 	0.5 	40.4851 	-0.653378 	-6.75507e-19
0.09375 	-0.96875 	0.5 	40.5042 	-0.641499 	-1.57937e-18
0.109375 	-0.96875 	0.5 	40.5234 	-0.631505 	-7.7151e-19
0.125 	-0.96875 	0.5 	40.5403 	-0.617981 	-6.85137e-20
0.140625 	-0.96875 	0.5 	40.558 	-0.608324 	-2.11758e-19
0.15625 	-0.96875 	0.5 	40.5763 	-0.593317 	-2.8213e-19
0.171875 	-0.96875 	0.5 	40.5933 	-0.578212 	-2.1887e-19
0.1875 	-0.96875 	0.5 	40.6089 	-0.563308 	-1.50299e-19
0.203125 	-0.96875 	0.5 	40.6245 	-0.547082 	-1.24618e-19
0.21875 	-0.96875 	0.5 	40.6415 	-0.528122 	-1.90331e-20
0.234375 	-0.96875 	0.5 	40.6558 	-0.510192 	-2.0509e-20
0.25 	-0.96875 	0.5 	40.667 	-0.492634 	-8.48295e-19
0.265625 	-0.96875 	0.5 	40.6789 	-0.47572 	-7.13696e-19
0.28125 	-0.96875 	0.5 	40.691 	-0.458826 	-3.48537e-19
0.296875 	-0.96875 	0.5 	40.7017 	-0.439789 	-2.57817e-19
0.3125 	-0.96875 	0.5 	40.7124 	-0.420208 	-1.42565e-19
0.328125 	-0.96875 	0.5 	40.7233 	-0.398861 	-2.09313e-19
0.34375 	-0.96875 	0.5 	40.7315 	-0.379694 	-9.96924e-20
0.359375 	-0.96875 	0.5 	40.7392 	-0.359829 	-1.15147e-19
0.375 	-0.96875 	0.5 	40.7486 	-0.334988 	3.24959e-19
0.390625 	-0.96875 	0.5 	40.7553 	-0.314231 	3.54616e-19
0.40625 	-0.96875 	0.5 	40.7604 	-0.294706 	1.13168e-19
0.421875 	-0.96875 	0.5 	40.7652 	-0.274071 	7.95069e-20
0.4375 	-0.96875 	0.5 	40.7692 	-0.253839 	1.58003e-20
0.453125 	-0.96875 	0.5 	40.7691 	-0.230827 	-2.186e-19
0.46875 	-0.96875 	0.5 	40.775 	-0.209494 	-1.22518e-20
0.484375 	-0.96875 	0.5 	40.7727 	-0.188762 	3.59387e-19
0.5 	-0.96875 	0.5 	40.7731 	-0.167383 	1.16803e-18
0.515625 	-0.96875 	0.5 	40.7733 	-0.145776 	8.76058e-19
0.53125 	-0.96875 	0.5 	40.7728 	-0.123502 	-1.82351e-19
0.546875 	-0.96875 	0.5 	40.7711 	-0.102636 	-4.62894e-21
0.5625 	-0.96875 	0.5 	40.7688 	-0.0810362 	-2.46404e-19
0.578125 	-0.96875 	0.5 	40.7645 	-0.0587685 	8.43577e-20
0.59375 	-0.96875 	0.5 	40.7609 	-0.0392015 	5.80154e-19
0.609375 	-0.96875 	0.5 	40.7535 	-0.0182089 	9.49309e-20
0.625 	-0.96875 	0.5 	40.7472 	0.0011158 	8.90809e-20
0.640625 	-0.96875 	0.5 	40.7424 	0.0199434 	1.71565e-19
0.65625 	-0.96875 	0.5 	40.736 	0.0375916 	-3.03261e-20
0.671875 	-0.96875 	0.5 	40.7277 	0.0544972 	8.75901e-19
0.6875 	-0.96875 	0.5 	40.7192 	0.0720747 	1.12623e-18
0.703125 	-0.96875 	0.5 	40.7092 	0.0888532 	-1.57476e-20
0.71875 	-0.96875 	0.5 	40.6984 	0.105735 	-4.61262e-20
0.734375 	-0.96875 	0.5 	40.6886 	0.122346 	-2.54149e-19
0.75 	-0.96875 	0.5 	40.6777 	0.137214 	2.97719e-19
0.765625 	-0.96875 	0.5 	40.667 	0.155013 	2.46252e-19
0.78125 	-0.96875 	0.5 	40.6556 	0.17058 	1.71042e-19
0.796875 	-0.96875 	0.5 	40.6447 	0.186205 	-5.64163e-19
0.8125 	-0.96875 	0.5 	40.6331 	0.1951 	3.8085e-19
0.828125 	-0.96875 	0.5 	40.6167 	0.20527 	-1.25914e-20
0.84375 	-0.96875 	0.5 	40.6028 	0.217192 	-4.44758e-19
0.859375 	-0.96875 	0.5 	40.5893 	0.225927 	1.15698e-19
0.875 	-0.96875 	0.5 	40.5774 	0.236863 	9.25345e-20
0.890625 	-0.96875 	0.5 	40.5654 	0.249039 	3.83508e-19
0.90625 	-0.96875 	0.5 	40.5526 	0.262778 	6.36212e-19
0.921875 	-0.96875 	0.5 	40.538 	0.270626 	2.93708e-19
0.9375 	-0.96875 	0.5 	40.5234 	0.277897 	-1.37207e-19
0.953125 	-0.96875 	0.5 	40.5093 	0.286014 	-1.57816e-19
0.96875 	-0.96875 	0.5 	40.4965 	0.292714 	-1.40325e-21
0.984375 	-0.96875 	0.5 	40.481 	0.299533 	1.52216e-19
1 	-0.96875 	0.5 	40.4674 	0.304435 	-7.06031e-19
1.01562 	-0.96875 	0.5 	40.4543 	0.308026 	5.66233e-19
1.03125 	-0.96875 	0.5 	40.4412 	0.310972 	1.12454e-18
1.04688 	-0.96875 	0.5 	40.4253 	0.315478 	9.3525e-19
1.0625 	-0.96875 	0.5 	40.4101 	0.319077 	9.31048e-19
1.07812 	-0.96875 	0.5 	40.3967 	0.32144 	4.07174e-19
1.09375 	-0.96875 	0.5 	40.3833 	0.32461 	2.01743e-19
1.10938 	-0.96875 	0.5 	40.37 	0.327203 	3.32746e-20
1.125 	-0.96875 	0.5 	40.3565 	0.328882 	1.20337e-19
1.14062 	-0.96875 	0.5 	40.3439 	0.330242 	9.35213e-19
1.15625 	-0.96875 	0.5 	40.3317 	0.330069 	-2.43425e-18
1.17188 	-0.96875 	0.5 	40.3181 	0.33143 	-1.58221e-18
1.1875 	-0.96875 	0.5 	40.3068 	0.330015 	2.21136e-18
1.20312 	-0.96875 	0.5 	40.2948 	0.328658 	1.2105e-18
1.21875 	-0.96875 	0.5 	40.2823 	0.327789 	4.37852e-19
1.23438 	-0.96875 	0.5 	40.2706 	0.327318 	2.62614e-19
1.25 	-0.96875 	0.5 	40.2598 	0.327748 	-2.11063e-19
1.26562 	-0.96875 	0.5 	40.2493 	0.327507 	-6.2276e-19
1.28125 	-0.96875 	0.5 	40.2383 	0.322015 	-1.52978e-18
1.29688 	-0.96875 	0.5 	40.2255 	0.318559 	-3.66964e-19
1.3125 	-0.96875 	0.5 	40.2161 	0.315148 	1.22856e-18
1.32812 	-0.96875 	0.5 	40.2052 	0.312427 	-1.41766e-19
1.34375 	-0.96875 	0.5 	40.1974 	0.311758 	-4.76406e-20
1.35938 	-0.96875 	0.5 	40.1878 	0.307011 	-2.99277e-19
1.375 	-0.96875 	0.5 	40.1802 	0.303439 	1.91253e-18
1.39062 	-0.96875 	0.5 	40.169 	0.301862 	-2.85489e-20
1.40625 	-0.96875 	0.5 	40.1606 	0.298865 	-8.64298e-20
1.42188 	-0.96875 	0.5 	40.152 	0.291838 	1.1427e-18
1.4375 	-0.96875 	0.5 	40.1441 	0.28843 	-2.80251e-19
1.45312 	-0.96875 	0.5 	40.1367 	0.282938 	4.4087e-19
1.46875 	-0.96875 	0.5 	40.1296 	0.276757 	1.04948e-18
1.48438 	-0.96875 	0.5 	40.1234 	0.272148 	2.4491e-18
-0.5 	-0.953125 	0.5 	39.8654 	-0.575715 	-3.68799e-19
-0.484375 	-0.953125 	0.5 	39.8747 	-0.585686 	9.44378e-19
-0.46875 	-0.953125 	0.5 	39.8835 	-0.595884 	1.90136e-18
-0.453125 	-0.953125 	0.5 	39.893 	-0.603988 	-6.00586e-19
-0.4375 	-0.953125 	0.5 	39.9048 	-0.613795 	-2.72292e-19
-0.421875 	-0.953125 	0.5 	39.9179 	-0.623665 	-1.99176e-19
-0.40625 	-0.953125 	0.5 	39.9294 	-0.634382 	-1.9167e-19
-0.390625 	-0.953125 	0.5 	39.9393 	-0.639806 	-1.88239e-18
-0.375 	-0.953125 	0.5 	39.9551 	-0.650519 	3.30918e-19
-0.359375 	-0.953125 	0.5 	39.9673 	-0.66094 	1.20419e-18
-0.34375 	-0.953125 	0.5 	39.9835 	-0.668406 	4.47571e-19
-0.328125 	-0.953125 	0.5 	39.9972 	-0.676334 	2.9691e-19
-0.3125 	-0.953125 	0.5 	40.0156 	-0.682628 	-1.02982e-18
-0.296875 	-0.953125 	0.5 	40.0329 	-0.690576 	-1.43792e-18
-0.28125 	-0.953125 	0.5 	40.0453 	-0.699299 	-2.72584e-19
-0.265625 	-0.953125 	0.5 	40.0614 	-0.703127 	-6.62816e-21
-0.25 	-0.953125 	0.5 	40.0766 	-0.708914 	2.16259e-19
-0.234375 	-0.953125 	0.5 	40.096 	-0.714976 	3.56251e-19
-0.21875 	-0.953125 	0.5 	40.1114 	-0.72145 	-6.85745e-20
-0.203125 	-0.953125 	0.5 	40.1294 	-0.726538 	-6.68594e-19
-0.1875 	-0.953125 	0.5 	40.1478 	-0.730587 	-7.68885e-19
-0.171875 	-0.953125 	0.5 	40.171 	-0.738118 	2.22507e-18
-0.15625 	-0.953125 	0.5 	40.1886 	-0.733563 	4.87051e-19
-0.140625 	-0.953125 	0.5 	40.2082 	-0.732741 	1.3873e-19
-0.125 	-0.953125 	0.5 	40.2267 	-0.735586 	1.285e-19
-0.109375 	-0.953125 	0.5 	40.2488 	-0.736347 	1.55963e-19
-0.09375 	-0.953125 	0.5 	40.2683 	-0.731273 	2.12446e-19
-0.078125 	-0.953125 	0.5 	40.2881 	-0.727311 	5.91934e-20
-0.0625 	-0.953125 	0.5 	40.3087 	-0.726066 	1.05499e-19
-0.046875 	-0.953125 	0.5 	40.3315 	-0.725863 	2.6691e-19
-0.03125 	-0.953125 	0.5 	40.3533 	-0.722663 	5.2685e-19
-0.015625 	-0.953125 	0.5 	40.373 	-0.716689 	5.98819e-19
0 	-0.953125 	0.5 	40.3931 	-0.712411 	9.58418e-19
0.015625 	-0.953125 	0.5 	40.412 	-0.705708 	1.72024e-19
0.03125 	-0.953125 	0.5 	40.4342 	-0.69869 	2.39186e-19
0.046875 	-0.953125 	0.5 	40.4567 	-0.691423 	8.17855e-19
0.0625 	-0.953125 	0.5 	40.4771 	-0.683868 	1.27954e-19
0.078125 	-0.953125 	0.5 	40.4972 	-0.671957 	-5.69729e-19
0.09375 	-0.953125 	0.5 	40.5163 	-0.660171 	-1.38976e-18
0.109375 	-0.953125 	0.5 	40.5355 	-0.650453 	-3.31522e-19
0.125 	-0.953125 	0.5 	40.551 	-0.63577 	4.71497e-19
0.140625 	-0.953125 	0.5 	40.5709 	-0.622362 	-1.45792e-19
0.15625 	-0.953125 	0.5 	40.5892 	-0.609509 	-3.20512e-19
0.171875 	-0.953125 	0.5 	40.6058 	-0.594908 	-2.12189e-19
0.1875 	-0.953125 	0.5 	40.6233 	-0.578963 	-3.15253e-19
0.203125 	-0.953125 	0.5 	40.6405 	-0.562034 	-2.57794e-19
0.21875 	-0.953125 	0.5 	40.6574 	-0.544409 	-9.36503e-20
0.234375 	-0.953125 	0.5 	40.6739 	-0.525118 	4.92046e-19
0.25 	-0.953125 	0.5 	40.6865 	-0.506688 	-5.60367e-19
0.265625 	-0.953125 	0.5 	40.6976 	-0.490467 	-1.09759e-18
0.28125 	-0.953125 	0.5 	40.7107 	-0.471369 	-4.62379e-19
0.296875 	-0.953125 	0.5 	40.7239 	-0.449291 	-6.99792e-19
0.3125 	-0.953125 	0.5 	40.7346 	-0.430357 	-3.19599e-19
0.328125 	-0.953125 	0.5 	40.7428 	-0.405838 	-1.33969e-19
0.34375 	-0.953125 	0.5 	40.7503 	-0.384102 	1.86087e-19
0.359375 	-0.953125 	0.5 	40.7606 	-0.367313 	-2.91304e-20
0.375 	-0.953125 	0.5 	40.7696 	-0.344445 	3.01961e-19
0.390625 	-0.953125 	0.5 	40.7757 	-0.323277 	2.10952e-20
0.40625 	-0.953125 	0.5 	40.783 	-0.299879 	-1.36387e-20
0.421875 	-0.953125 	0.5 	40.7859 	-0.278319 	7.93629e-20
0.4375 	-0.953125 	0.5 	40.7888 	-0.253442 	1.0158e-19
0.453125 	-0.953125 	0.5 	40.7919 	-0.231882 	1.53501e-20
0.46875 	-0.953125 	0.5 	40.7943 	-0.209407 	3.18183e-19
0.484375 	-0.953125 	0.5 	40.7972 	-0.185675 	4.88347e-19
0.5 	-0.953125 	0.5 	40.7958 	-0.165181 	5.23948e-19
0.515625 	-0.953125 	0.5 	40.7956 	-0.143189 	-2.14235e-19
0.53125 	-0.953125 	0.5 	40.7926 	-0.120188 	-1.4706e-18
0.546875 	-0.953125 	0.5 	40.7917 	-0.0995065 	-5.18191e-19
0.5625 	-0.953125 	0.5 	40.7893 	-0.0787485 	-3.99525e-19
0.578125 	-0.953125 	0.5 	40.7848 	-0.055906 	-1.20296e-19
0.59375 	-0.953125 	0.5 	40.7805 	-0.0332564 	2.11088e-19
0.609375 	-0.953125 	0.5 	40.7744 	-0.0114163 	6.96257e-19
0.625 	-0.953125 	0.5 	40.7683 	0.0087375 	9.20546e-19
0.640625 	-0.953125 	0.5 	40.7634 	0.0268001 	3.85222e-19
0.65625 	-0.953125 	0.5 	40.754 	0.0448256 	1.38439e-19
0.671875 	-0.953125 	0.5 	40.7446 	0.0635449 	4.84602e-19
0.6875 	-0.953125 	0.5 	40.7364 	0.0805882 	1.35081e-18
0.703125 	-0.953125 	0.5 	40.7264 	0.097461 	1.79298e-19
0.71875 	-0.953125 	0.5 	40.7157 	0.11475 	1.62352e-19
0.734375 	-0.953125 	0.5 	40.7044 	0.132407 	3.6889e-20
0.75 	-0.953125 	0.5 	40.6922 	0.15008 	1.01751e-19
0.765625 	-0.953125 	0.5 	40.681 	0.167244 	2.00105e-19
0.78125 	-0.953125 	0.5 	40.6709 	0.183394 	1.01364e-18
0.796875 	-0.953125 	0.5 	40.6581 	0.196643 	6.58423e-19
0.8125 	-0.953125 	0.5 	40.6452 	0.209516 	-3.85025e-20
0.828125 	-0.953125 	0.5 	40.6315 	0.221269 	-3.65165e-19
0.84375 	-0.953125 	0.5 	40.6164 	0.230691 	-3.67199e-19
0.859375 	-0.953125 	0.5 	40.6005 	0.238574 	-1.0433e-19
0.875 	-0.953125 	0.5 	40.587 	0.24826 	3.81132e-19
0.890625 	-0.953125 	0.5 	40.5762 	0.265205 	1.48204e-18
0.90625 	-0.953125 	0.5 	40.5605 	0.276711 	6.28543e-19
0.921875 	-0.953125 	0.5 	40.547 	0.285584 	1.3244e-18
0.9375 	-0.953125 	0.5 	40.531 	0.292878 	-1.10653e-19
0.953125 	-0.953125 	0.5 	40.5155 	0.300225 	-2.27896e-19
0.96875 	-0.953125 	0.5 	40.5 	0.307045 	-7.39966e-20
0.984375 	-0.953125 	0.5 	40.4866 	0.313743 	6.25137e-20
1 	-0.953125 	0.5 	40.4721 	0.317602 	-1.39484e-18
1.01562 	-0.953125 	0.5 	40.4576 	0.322124 	-2.01943e-19
1.03125 	-0.953125 	0.5 	40.4441 	0.325423 	3.9311e-19
1.04688 	-0.953125 	0.5 	40.4284 	0.329681 	9.74164e-19
1.0625 	-0.953125 	0.5 	40.4127 	0.333941 	4.72632e-19
1.07812 	-0.953125 	0.5 	40.3986 	0.335815 	4.19731e-19
1.09375 	-0.953125 	0.5 	40.3854 	0.33851 	3.30168e-19
1.10938 	-0.953125 	0.5 	40.3721 	0.340415 	6.81995e-20
1.125 	-0.953125 	0.5 	40.3586 	0.34175 	-1.03139e-19
1.14062 	-0.953125 	0.5 	40.3454 	0.343352 	8.89653e-21
1.15625 	-0.953125 	0.5 	40.3321 	0.343644 	-1.02161e-18
1.17188 	-0.953125 	0.5 	40.3186 	0.344511 	-9.60855e-19
1.1875 	-0.953125 	0.5 	40.3056 	0.344912 	-1.94391e-19
1.20312 	-0.953125 	0.5 	40.2926 	0.344798 	-3.92152e-19
1.21875 	-0.953125 	0.5 	40.2801 	0.34225 	-1.71345e-19
1.23438 	-0.953125 	0.5 	40.267 	0.34017 	1.75516e-19
1.25 	-0.953125 	0.5 	40.2568 	0.339966 	-3.02945e-19
1.26562 	-0.953125 	0.5 	40.2462 	0.3378 	-2.96804e-19
1.28125 	-0.953125 	0.5 	40.2346 	0.334236 	-3.81767e-20
1.29688 	-0.953125 	0.5 	40.2224 	0.329937 	3.36872e-19
1.3125 	-0.953125 	0.5 	40.2141 	0.32613 	1.82317e-18
1.32812 	-0.953125 	0.5 	40.2038 	0.322853 	1.11166e-18
1.34375 	-0.953125 	0.5 	40.1932 	0.320362 	-1.02471e-19
1.35938 	-0.953125 	0.5 	40.1847 	0.316982 	6.76106e-19
1.375 	-0.953125 	0.5 	40.1746 	0.314798 	-3.93419e-20
1.39062 	-0.953125 	0.5 	40.1648 	0.31193 	8.85551e-21
1.40625 	-0.953125 	0.5 	40.1561 	0.306561 	1.19304e-19
1.42188 	-0.953125 	0.5 	40.1475 	0.299654 	1.24577e-18
1.4375 	-0.953125 	0.5 	40.1396 	0.295976 	2.46859e-20
1.45312 	-0.953125 	0.5 	40.1322 	0.290425 	7.53483e-19
1.46875 	-0.953125 	0.5 	40.1256 	0.285219 	9.63676e-19
1.48438 	-0.953125 	0.5 	40.1193 	0.280998 	1.58213e-18
-0.5 	-0.9375 	0.5 	39.8524 	-0.586805 	-3.11195e-18
-0.484375 	-0.9375 	0.5 	39.8622 	-0.596101 	-1.85429e-18
-0.46875 	-0.9375 	0.5 	39.8721 	-0.605396 	-5.96638e-19
-0.453125 	-0.9375 	0.5 	39.8832 	-0.615716 	2.37093e-20
-0.4375 	-0.9375 	0.5 	39.896 	-0.625808 	9.35547e-20
-0.421875 	-0.9375 	0.5 	39.9089 	-0.635843 	1.53867e-19
-0.40625 	-0.9375 	0.5 	39.9211 	-0.646179 	1.90974e-19
-0.390625 	-0.9375 	0.5 	39.9317 	-0.654343 	-6.49691e-19
-0.375 	-0.9375 	0.5 	39.945 	-0.664937 	1.11358e-18
-0.359375 	-0.9375 	0.5 	39.9552 	-0.675943 	2.1725e-18
-0.34375 	-0.9375 	0.5 	39.9718 	-0.684004 	1.40865e-18
-0.328125 	-0.9375 	0.5 	39.9886 	-0.69165 	5.2277e-19
-0.3125 	-0.9375 	0.5 	40.0063 	-0.699291 	-4.74502e-20
-0.296875 	-0.9375 	0.5 	40.0234 	-0.707363 	-3.90008e-19
-0.28125 	-0.9375 	0.5 	40.0405 	-0.715435 	-7.32566e-19
-0.265625 	-0.9375 	0.5 	40.055 	-0.722212 	-3.3323e-19
-0.25 	-0.9375 	0.5 	40.0717 	-0.728708 	-1.56324e-19
-0.234375 	-0.9375 	0.5 	40.0896 	-0.735009 	2.75555e-20
-0.21875 	-0.9375 	0.5 	40.1083 	-0.740825 	-1.89204e-19
-0.203125 	-0.9375 	0.5 	40.1273 	-0.747572 	-2.03046e-18
-0.1875 	-0.9375 	0.5 	40.1459 	-0.752144 	-2.48797e-18
-0.171875 	-0.9375 	0.5 	40.1635 	-0.752849 	-4.39386e-19
-0.15625 	-0.9375 	0.5 	40.1838 	-0.753327 	-3.31505e-21
-0.140625 	-0.9375 	0.5 	40.2057 	-0.756254 	1.389e-20
-0.125 	-0.9375 	0.5 	40.2302 	-0.759121 	5.78646e-20
-0.109375 	-0.9375 	0.5 	40.2477 	-0.758076 	9.29421e-20
-0.09375 	-0.9375 	0.5 	40.2703 	-0.756226 	5.61119e-19
-0.078125 	-0.9375 	0.5 	40.2896 	-0.750875 	5.74479e-19
-0.0625 	-0.9375 	0.5 	40.3105 	-0.750816 	7.0782e-19
-0.046875 	-0.9375 	0.5 	40.3356 	-0.744118 	4.7193e-19
-0.03125 	-0.9375 	0.5 	40.3577 	-0.744083 	3.95355e-19
-0.015625 	-0.9375 	0.5 	40.3789 	-0.739198 	9.2719e-19
0 	-0.9375 	0.5 	40.3981 	-0.733092 	6.95038e-19