-0.5 	-1 	0.5 	-286.016
-0.484375 	-1 	0.5 	-286.103
-0.46875 	-1 	0.5 	-286.191
-0.453125 	-1 	0.5 	-286.286
-0.4375 	-1 	0.5 	-286.384
-0.421875 	-1 	0.5 	-286.476
-0.40625 	-1 	0.5 	-286.576
-0.390625 	-1 	0.5 	-286.686
-0.375 	-1 	0.5 	-286.803
-0.359375 	-1 	0.5 	-286.924
-0.34375 	-1 	0.5 	-287.027
-0.328125 	-1 	0.5 	-287.13
-0.3125 	-1 	0.5 	-287.279
-0.296875 	-1 	0.5 	-287.422
-0.28125 	-1 	0.5 	-287.542
-0.265625 	-1 	0.5 	-287.676
-0.25 	-1 	0.5 	-287.821
-0.234375 	-1 	0.5 	-287.976
-0.21875 	-1 	0.5 	-288.144
-0.203125 	-1 	0.5 	-288.285
-0.1875 	-1 	0.5 	-288.448
-0.171875 	-1 	0.5 	-288.628
-0.15625 	-1 	0.5 	-288.775
-0.140625 	-1 	0.5 	-288.944
-0.125 	-1 	0.5 	-289.122
-0.109375 	-1 	0.5 	-289.285
-0.09375 	-1 	0.5 	-289.438
-0.078125 	-1 	0.5 	-289.627
-0.0625 	-1 	0.5 	-289.788
-0.046875 	-1 	0.5 	-289.945
-0.03125 	-1 	0.5 	-290.147
-0.015625 	-1 	0.5 	-290.339
0 	-1 	0.5 	-290.484
0.015625 	-1 	0.5 	-290.644
0.03125 	-1 	0.5 	-290.839
0.046875 	-1 	0.5 	-291.001
0.0625 	-1 	0.5 	-291.161
0.078125 	-1 	0.5 	-291.33
0.09375 	-1 	0.5 	-291.499
0.109375 	-1 	0.5 	-291.667
0.125 	-1 	0.5 	-291.837
0.140625 	-1 	0.5 	-291.99
0.15625 	-1 	0.5 	-292.121
0.171875 	-1 	0.5 	-292.272
0.1875 	-1 	0.5 	-292.432
0.203125 	-1 	0.5 	-292.556
0.21875 	-1 	0.5 	-292.699
0.234375 	-1 	0.5 	-292.806
0.25 	-1 	0.5 	-292.914
0.265625 	-1 	0.5 	-293.063
0.28125 	-1 	0.5 	-293.193
0.296875 	-1 	0.5 	-293.273
0.3125 	-1 	0.5 	-293.39
0.328125 	-1 	0.5 	-293.49
0.34375 	-1 	0.5 	-293.588
0.359375 	-1 	0.5 	-293.666
0.375 	-1 	0.5 	-293.741
0.390625 	-1 	0.5 	-293.794
0.40625 	-1 	0.5 	-293.855
0.421875 	-1 	0.5 	-293.915
0.4375 	-1 	0.5 	-293.969
0.453125 	-1 	0.5 	-294.002
0.46875 	-1 	0.5 	-294.019
0.484375 	-1 	0.5 	-294.031
0.5 	-1 	0.5 	-294.107
0.515625 	-1 	0.5 	-294.105
0.53125 	-1 	0.5 	-294.112
0.546875 	-1 	0.5 	-294.14
0.5625 	-1 	0.5 	-294.116
0.578125 	-1 	0.5 	-294.087
0.59375 	-1 	0.5 	-294.072
0.609375 	-1 	0.5 	-294.039
0.625 	-1 	0.5 	-294.013
0.640625 	-1 	0.5 	-293.96
0.65625 	-1 	0.5 	-293.91
0.671875 	-1 	0.5 	-293.838
0.6875 	-1 	0.5 	-293.783
0.703125 	-1 	0.5 	-293.739
0.71875 	-1 	0.5 	-293.674
0.734375 	-1 	0.5 	-293.607
0.75 	-1 	0.5 	-293.506
0.765625 	-1 	0.5 	-293.453
0.78125 	-1 	0.5 	-293.367
0.796875 	-1 	0.5 	-293.251
0.8125 	-1 	0.5 	-293.168
0.828125 	-1 	0.5 	-293.087
0.84375 	-1 	0.5 	-293.008
0.859375 	-1 	0.5 	-292.906
0.875 	-1 	0.5 	-292.792
0.890625 	-1 	0.5 	-292.673
0.90625 	-1 	0.5 	-292.563
0.921875 	-1 	0.5 	-292.454
0.9375 	-1 	0.5 	-292.341
0.953125 	-1 	0.5 	-292.225
0.96875 	-1 	0.5 	-292.109
0.984375 	-1 	0.5 	-292.001
1 	-1 	0.5 	-291.891
1.01562 	-1 	0.5 	-291.769
1.03125 	-1 	0.5 	-291.647
1.04688 	-1 	0.5 	-291.519
1.0625 	-1 	0.5 	-291.415
1.07812 	-1 	0.5 	-291.306
1.09375 	-1 	0.5 	-291.183
1.10938 	-1 	0.5 	-291.077
1.125 	-1 	0.5 	-290.964
1.14062 	-1 	0.5 	-290.85
1.15625 	-1 	0.5 	-290.727
1.17188 	-1 	0.5 	-290.605
1.1875 	-1 	0.5 	-290.499
1.20312 	-1 	0.5 	-290.408
1.21875 	-1 	0.5 	-290.288
1.23438 	-1 	0.5 	-290.205
1.25 	-1 	0.5 	-290.106
1.26562 	-1 	0.5 	-289.991
1.28125 	-1 	0.5 	-289.885
1.29688 	-1 	0.5 	-289.817
1.3125 	-1 	0.5 	-289.747
1.32812 	-1 	0.5 	-289.615
1.34375 	-1 	0.5 	-289.512
1.35938 	-1 	0.5 	-289.412
1.375 	-1 	0.5 	-289.349
1.39062 	-1 	0.5 	-289.295
1.40625 	-1 	0.5 	-289.204
1.42188 	-1 	0.5 	-289.132
1.4375 	-1 	0.5 	-289.073
1.45312 	-1 	0.5 	-289.006
1.46875 	-1 	0.5 	-288.928
1.48438 	-1 	0.5 	-288.874
-0.5 	-0.984375 	0.5 	-285.921
-0.484375 	-0.984375 	0.5 	-286.013
-0.46875 	-0.984375 	0.5 	-286.105
-0.453125 	-0.984375 	0.5 	-286.198
-0.4375 	-0.984375 	0.5 	-286.291
-0.421875 	-0.984375 	0.5 	-286.387
-0.40625 	-0.984375 	0.5 	-286.496
-0.390625 	-0.984375 	0.5 	-286.607
-0.375 	-0.984375 	0.5 	-286.719
-0.359375 	-0.984375 	0.5 	-286.838
-0.34375 	-0.984375 	0.5 	-286.941
-0.328125 	-0.984375 	0.5 	-287.074
-0.3125 	-0.984375 	0.5 	-287.207
-0.296875 	-0.984375 	0.5 	-287.341
-0.28125 	-0.984375 	0.5 	-287.483
-0.265625 	-0.984375 	0.5 	-287.632
-0.25 	-0.984375 	0.5 	-287.781
-0.234375 	-0.984375 	0.5 	-287.929
-0.21875 	-0.984375 	0.5 	-288.093
-0.203125 	-0.984375 	0.5 	-288.24
-0.1875 	-0.984375 	0.5 	-288.408
-0.171875 	-0.984375 	0.5 	-288.589
-0.15625 	-0.984375 	0.5 	-288.743
-0.140625 	-0.984375 	0.5 	-288.933
-0.125 	-0.984375 	0.5 	-289.106
-0.109375 	-0.984375 	0.5 	-289.271
-0.09375 	-0.984375 	0.5 	-289.439
-0.078125 	-0.984375 	0.5 	-289.62
-0.0625 	-0.984375 	0.5 	-289.802
-0.046875 	-0.984375 	0.5 	-289.986
-0.03125 	-0.984375 	0.5 	-290.177
-0.015625 	-0.984375 	0.5 	-290.363
0 	-0.984375 	0.5 	-290.536
0.015625 	-0.984375 	0.5 	-290.696
0.03125 	-0.984375 	0.5 	-290.897
0.046875 	-0.984375 	0.5 	-291.055
0.0625 	-0.984375 	0.5 	-291.224
0.078125 	-0.984375 	0.5 	-291.393
0.09375 	-0.984375 	0.5 	-291.594
0.109375 	-0.984375 	0.5 	-291.762
0.125 	-0.984375 	0.5 	-291.931
0.140625 	-0.984375 	0.5 	-292.093
0.15625 	-0.984375 	0.5 	-292.235
0.171875 	-0.984375 	0.5 	-292.406
0.1875 	-0.984375 	0.5 	-292.568
0.203125 	-0.984375 	0.5 	-292.683
0.21875 	-0.984375 	0.5 	-292.828
0.234375 	-0.984375 	0.5 	-292.994
0.25 	-0.984375 	0.5 	-293.115
0.265625 	-0.984375 	0.5 	-293.224
0.28125 	-0.984375 	0.5 	-293.324
0.296875 	-0.984375 	0.5 	-293.455
0.3125 	-0.984375 	0.5 	-293.564
0.328125 	-0.984375 	0.5 	-293.651
0.34375 	-0.984375 	0.5 	-293.758
0.359375 	-0.984375 	0.5 	-293.826
0.375 	-0.984375 	0.5 	-293.913
0.390625 	-0.984375 	0.5 	-293.965
0.40625 	-0.984375 	0.5 	-294.026
0.421875 	-0.984375 	0.5 	-294.073
0.4375 	-0.984375 	0.5 	-294.147
0.453125 	-0.984375 	0.5 	-294.187
0.46875 	-0.984375 	0.5 	-294.194
0.484375 	-0.984375 	0.5 	-294.216
0.5 	-0.984375 	0.5 	-294.276
0.515625 	-0.984375 	0.5 	-294.282
0.53125 	-0.984375 	0.5 	-294.276
0.546875 	-0.984375 	0.5 	-294.301
0.5625 	-0.984375 	0.5 	-294.281
0.578125 	-0.984375 	0.5 	-294.261
0.59375 	-0.984375 	0.5 	-294.246
0.609375 	-0.984375 	0.5 	-294.221
0.625 	-0.984375 	0.5 	-294.164
0.640625 	-0.984375 	0.5 	-294.095
0.65625 	-0.984375 	0.5 	-294.066
0.671875 	-0.984375 	0.5 	-293.985
0.6875 	-0.984375 	0.5 	-293.942
0.703125 	-0.984375 	0.5 	-293.871
0.71875 	-0.984375 	0.5 	-293.848
0.734375 	-0.984375 	0.5 	-293.743
0.75 	-0.984375 	0.5 	-293.662
0.765625 	-0.984375 	0.5 	-293.591
0.78125 	-0.984375 	0.5 	-293.488
0.796875 	-0.984375 	0.5 	-293.365
0.8125 	-0.984375 	0.5 	-293.282
0.828125 	-0.984375 	0.5 	-293.204
0.84375 	-0.984375 	0.5 	-293.118
0.859375 	-0.984375 	0.5 	-293.003
0.875 	-0.984375 	0.5 	-292.906
0.890625 	-0.984375 	0.5 	-292.767
0.90625 	-0.984375 	0.5 	-292.657
0.921875 	-0.984375 	0.5 	-292.554
0.9375 	-0.984375 	0.5 	-292.431
0.953125 	-0.984375 	0.5 	-292.318
0.96875 	-0.984375 	0.5 	-292.197
0.984375 	-0.984375 	0.5 	-292.06
1 	-0.984375 	0.5 	-291.927
1.01562 	-0.984375 	0.5 	-291.804
1.03125 	-0.984375 	0.5 	-291.683
1.04688 	-0.984375 	0.5 	-291.562
1.0625 	-0.984375 	0.5 	-291.448
1.07812 	-0.984375 	0.5 	-291.331
1.09375 	-0.984375 	0.5 	-291.211
1.10938 	-0.984375 	0.5 	-291.093
1.125 	-0.984375 	0.5 	-290.961
1.14062 	-0.984375 	0.5 	-290.841
1.15625 	-0.984375 	0.5 	-290.746
1.17188 	-0.984375 	0.5 	-290.626
1.1875 	-0.984375 	0.5 	-290.499
1.20312 	-0.984375 	0.5 	-290.393
1.21875 	-0.984375 	0.5 	-290.294
1.23438 	-0.984375 	0.5 	-290.188
1.25 	-0.984375 	0.5 	-290.072
1.26562 	-0.984375 	0.5 	-289.963
1.28125 	-0.984375 	0.5 	-289.866
1.29688 	-0.984375 	0.5 	-289.763
1.3125 	-0.984375 	0.5 	-289.7
1.32812 	-0.984375 	0.5 	-289.57
1.34375 	-0.984375 	0.5 	-289.494
1.35938 	-0.984375 	0.5 	-289.375
1.375 	-0.984375 	0.5 	-289.297
1.39062 	-0.984375 	0.5 	-289.242
1.40625 	-0.984375 	0.5 	-289.173
1.42188 	-0.984375 	0.5 	-289.102
1.4375 	-0.984375 	0.5 	-289.037
1.45312 	-0.984375 	0.5 	-288.965
1.46875 	-0.984375 	0.5 	-288.884
1.48438 	-0.984375 	0.5 	-288.826
-0.5 	-0.96875 	0.5 	-285.813
-0.484375 	-0.96875 	0.5 	-285.907
-0.46875 	-0.96875 	0.5 	-286.003
-0.453125 	-0.96875 	0.5 	-286.098
-0.4375 	-0.96875 	0.5 	-286.192
-0.421875 	-0.96875 	0.5 	-286.297
-0.40625 	-0.96875 	0.5 	-286.417
-0.390625 	-0.96875 	0.5 	-286.529
-0.375 	-0.96875 	0.5 	-286.64
-0.359375 	-0.96875 	0.5 	-286.745
-0.34375 	-0.96875 	0.5 	-286.871
-0.328125 	-0.96875 	0.5 	-286.995
-0.3125 	-0.96875 	0.5 	-287.119
-0.296875 	-0.96875 	0.5 	-287.261
-0.28125 	-0.96875 	0.5 	-287.414
-0.265625 	-0.96875 	0.5 	-287.574
-0.25 	-0.96875 	0.5 	-287.737
-0.234375 	-0.96875 	0.5 	-287.887
-0.21875 	-0.96875 	0.5 	-288.042
-0.203125 	-0.96875 	0.5 	-288.208
-0.1875 	-0.96875 	0.5 	-288.376
-0.171875 	-0.96875 	0.5 	-288.546
-0.15625 	-0.96875 	0.5 	-288.724
-0.140625 	-0.96875 	0.5 	-288.907
-0.125 	-0.96875 	0.5 	-289.094
-0.109375 	-0.96875 	0.5 	-289.274
-0.09375 	-0.96875 	0.5 	-289.454
-0.078125 	-0.96875 	0.5 	-289.633
-0.0625 	-0.96875 	0.5 	-289.817
-0.046875 	-0.96875 	0.5 	-290.018
-0.03125 	-0.96875 	0.5 	-290.208
-0.015625 	-0.96875 	0.5 	-290.391
0 	-0.96875 	0.5 	-290.579
0.015625 	-0.96875 	0.5 	-290.771
0.03125 	-0.96875 	0.5 	-290.951
0.046875 	-0.96875 	0.5 	-291.122
0.0625 	-0.96875 	0.5 	-291.295
0.078125 	-0.96875 	0.5 	-291.467
0.09375 	-0.96875 	0.5 	-291.661
0.109375 	-0.96875 	0.5 	-291.856
0.125 	-0.96875 	0.5 	-292.023
0.140625 	-0.96875 	0.5 	-292.185
0.15625 	-0.96875 	0.5 	-292.348
0.171875 	-0.96875 	0.5 	-292.514
0.1875 	-0.96875 	0.5 	-292.681
0.203125 	-0.96875 	0.5 	-292.834
0.21875 	-0.96875 	0.5 	-292.954
0.234375 	-0.96875 	0.5 	-293.123
0.25 	-0.96875 	0.5 	-293.275
0.265625 	-0.96875 	0.5 	-293.376
0.28125 	-0.96875 	0.5 	-293.483
0.296875 	-0.96875 	0.5 	-293.624
0.3125 	-0.96875 	0.5 	-293.736
0.328125 	-0.96875 	0.5 	-293.85
0.34375 	-0.96875 	0.5 	-293.936
0.359375 	-0.96875 	0.5 	-294.038
0.375 	-0.96875 	0.5 	-294.084
0.390625 	-0.96875 	0.5 	-294.135
0.40625 	-0.96875 	0.5 	-294.221
0.421875 	-0.96875 	0.5 	-294.306
0.4375 	-0.96875 	0.5 	-294.33
0.453125 	-0.96875 	0.5 	-294.357
0.46875 	-0.96875 	0.5 	-294.384
0.484375 	-0.96875 	0.5 	-294.429
0.5 	-0.96875 	0.5 	-294.475
0.515625 	-0.96875 	0.5 	-294.491
0.53125 	-0.96875 	0.5 	-294.455
0.546875 	-0.96875 	0.5 	-294.454
0.5625 	-0.96875 	0.5 	-294.441
0.578125 	-0.96875 	0.5 	-294.428
0.59375 	-0.96875 	0.5 	-294.403
0.609375 	-0.96875 	0.5 	-294.342
0.625 	-0.96875 	0.5 	-294.334
0.640625 	-0.96875 	0.5 	-294.287
0.65625 	-0.96875 	0.5 	-294.222
0.671875 	-0.96875 	0.5 	-294.173
0.6875 	-0.96875 	0.5 	-294.149
0.703125 	-0.96875 	0.5 	-294.072
0.71875 	-0.96875 	0.5 	-293.978
0.734375 	-0.96875 	0.5 	-293.883
0.75 	-0.96875 	0.5 	-293.8
0.765625 	-0.96875 	0.5 	-293.718
0.78125 	-0.96875 	0.5 	-293.649
0.796875 	-0.96875 	0.5 	-293.518
0.8125 	-0.96875 	0.5 	-293.432
0.828125 	-0.96875 	0.5 	-293.311
0.84375 	-0.96875 	0.5 	-293.214
0.859375 	-0.96875 	0.5 	-293.107
0.875 	-0.96875 	0.5 	-292.992
0.890625 	-0.96875 	0.5 	-292.867
0.90625 	-0.96875 	0.5 	-292.752
0.921875 	-0.96875 	0.5 	-292.636
0.9375 	-0.96875 	0.5 	-292.521
0.953125 	-0.96875 	0.5 	-292.381
0.96875 	-0.96875 	0.5 	-292.233
0.984375 	-0.96875 	0.5 	-292.094
1 	-0.96875 	0.5 	-291.988
1.01562 	-0.96875 	0.5 	-291.851
1.03125 	-0.96875 	0.5 	-291.739
1.04688 	-0.96875 	0.5 	-291.607
1.0625 	-0.96875 	0.5 	-291.464
1.07812 	-0.96875 	0.5 	-291.347
1.09375 	-0.96875 	0.5 	-291.24
1.10938 	-0.96875 	0.5 	-291.09
1.125 	-0.96875 	0.5 	-290.975
1.14062 	-0.96875 	0.5 	-290.826
1.15625 	-0.96875 	0.5 	-290.756
1.17188 	-0.96875 	0.5 	-290.631
1.1875 	-0.96875 	0.5 	-290.499
1.20312 	-0.96875 	0.5 	-290.38
1.21875 	-0.96875 	0.5 	-290.276
1.23438 	-0.96875 	0.5 	-290.17
1.25 	-0.96875 	0.5 	-290.062
1.26562 	-0.96875 	0.5 	-289.953
1.28125 	-0.96875 	0.5 	-289.848
1.29688 	-0.96875 	0.5 	-289.787
1.3125 	-0.96875 	0.5 	-289.715
1.32812 	-0.96875 	0.5 	-289.569
1.34375 	-0.96875 	0.5 	-289.475
1.35938 	-0.96875 	0.5 	-289.372
1.375 	-0.96875 	0.5 	-289.317
1.39062 	-0.96875 	0.5 	-289.219
1.40625 	-0.96875 	0.5 	-289.129
1.42188 	-0.96875 	0.5 	-289.048
1.4375 	-0.96875 	0.5 	-288.983
1.45312 	-0.96875 	0.5 	-288.917
1.46875 	-0.96875 	0.5 	-288.84
1.48438 	-0.96875 	0.5 	-288.786
-0.5 	-0.953125 	0.5 	-285.705
-0.484375 	-0.953125 	0.5 	-285.798
-0.46875 	-0.953125 	0.5 	-285.893
-0.453125 	-0.953125 	0.5 	-285.988
-0.4375 	-0.953125 	0.5 	-286.091
-0.421875 	-0.953125 	0.5 	-286.203
-0.40625 	-0.953125 	0.5 	-286.314
-0.390625 	-0.953125 	0.5 	-286.442
-0.375 	-0.953125 	0.5 	-286.54
-0.359375 	-0.953125 	0.5 	-286.631
-0.34375 	-0.953125 	0.5 	-286.782
-0.328125 	-0.953125 	0.5 	-286.906
-0.3125 	-0.953125 	0.5 	-287.036
-0.296875 	-0.953125 	0.5 	-287.215
-0.28125 	-0.953125 	0.5 	-287.349
-0.265625 	-0.953125 	0.5 	-287.5
-0.25 	-0.953125 	0.5 	-287.664
-0.234375 	-0.953125 	0.5 	-287.83
-0.21875 	-0.953125 	0.5 	-288.006
-0.203125 	-0.953125 	0.5 	-288.174
-0.1875 	-0.953125 	0.5 	-288.339
-0.171875 	-0.953125 	0.5 	-288.513
-0.15625 	-0.953125 	0.5 	-288.722
-0.140625 	-0.953125 	0.5 	-288.933
-0.125 	-0.953125 	0.5 	-289.071
-0.109375 	-0.953125 	0.5 	-289.255
-0.09375 	-0.953125 	0.5 	-289.455
-0.078125 	-0.953125 	0.5 	-289.635
-0.0625 	-0.953125 	0.5 	-289.827
-0.046875 	-0.953125 	0.5 	-290.033
-0.03125 	-0.953125 	0.5 	-290.234
-0.015625 	-0.953125 	0.5 	-290.42
0 	-0.953125 	0.5 	-290.614
0.015625 	-0.953125 	0.5 	-290.838
0.03125 	-0.953125 	0.5 	-291.051
0.046875 	-0.953125 	0.5 	-291.167
0.0625 	-0.953125 	0.5 	-291.366
0.078125 	-0.953125 	0.5 	-291.563
0.09375 	-0.953125 	0.5 	-291.809
0.109375 	-0.953125 	0.5 	-291.964
0.125 	-0.953125 	0.5 	-292.139
0.140625 	-0.953125 	0.5 	-292.313
0.15625 	-0.953125 	0.5 	-292.464
0.171875 	-0.953125 	0.5 	-292.645
0.1875 	-0.953125 	0.5 	-292.793
0.203125 	-0.953125 	0.5 	-292.988
0.21875 	-0.953125 	0.5 	-293.135
0.234375 	-0.953125 	0.5 	-293.268
0.25 	-0.953125 	0.5 	-293.41
0.265625 	-0.953125 	0.5 	-293.541
0.28125 	-0.953125 	0.5 	-293.661
0.296875 	-0.953125 	0.5 	-293.769
0.3125 	-0.953125 	0.5 	-293.885
0.328125 	-0.953125 	0.5 	-294.013
0.34375 	-0.953125 	0.5 	-294.113
0.359375 	-0.953125 	0.5 	-294.2
0.375 	-0.953125 	0.5 	-294.269
0.390625 	-0.953125 	0.5 	-294.329
0.40625 	-0.953125 	0.5 	-294.41
0.421875 	-0.953125 	0.5 	-294.476
0.4375 	-0.953125 	0.5 	-294.524
0.453125 	-0.953125 	0.5 	-294.566
0.46875 	-0.953125 	0.5 	-294.587
0.484375 	-0.953125 	0.5 	-294.608
0.5 	-0.953125 	0.5 	-294.654
0.515625 	-0.953125 	0.5 	-294.677
0.53125 	-0.953125 	0.5 	-294.662
0.546875 	-0.953125 	0.5 	-294.665
0.5625 	-0.953125 	0.5 	-294.678
0.578125 	-0.953125 	0.5 	-294.635
0.59375 	-0.953125 	0.5 	-294.538
0.609375 	-0.953125 	0.5 	-294.503
0.625 	-0.953125 	0.5 	-294.497
0.640625 	-0.953125 	0.5 	-294.507
0.65625 	-0.953125 	0.5 	-294.417
0.671875 	-0.953125 	0.5 	-294.346
0.6875 	-0.953125 	0.5 	-294.27
0.703125 	-0.953125 	0.5 	-294.195
0.71875 	-0.953125 	0.5 	-294.122
0.734375 	-0.953125 	0.5 	-294.045
0.75 	-0.953125 	0.5 	-293.961
0.765625 	-0.953125 	0.5 	-293.858
0.78125 	-0.953125 	0.5 	-293.742
0.796875 	-0.953125 	0.5 	-293.662
0.8125 	-0.953125 	0.5 	-293.555
0.828125 	-0.953125 	0.5 	-293.442
0.84375 	-0.953125 	0.5 	-293.327
0.859375 	-0.953125 	0.5 	-293.222
0.875 	-0.953125 	0.5 	-293.101
0.890625 	-0.953125 	0.5 	-292.963
0.90625 	-0.953125 	0.5 	-292.824
0.921875 	-0.953125 	0.5 	-292.714
0.9375 	-0.953125 	0.5 	-292.593
0.953125 	-0.953125 	0.5 	-292.487
0.96875 	-0.953125 	0.5 	-292.309
0.984375 	-0.953125 	0.5 	-292.159
1 	-0.953125 	0.5 	-292.028
1.01562 	-0.953125 	0.5 	-291.92
1.03125 	-0.953125 	0.5 	-291.792
1.04688 	-0.953125 	0.5 	-291.657
1.0625 	-0.953125 	0.5 	-291.507
1.07812 	-0.953125 	0.5 	-291.387
1.09375 	-0.953125 	0.5 	-291.279
1.10938 	-0.953125 	0.5 	-291.118
1.125 	-0.953125 	0.5 	-290.992
1.14062 	-0.953125 	0.5 	-290.865
1.15625 	-0.953125 	0.5 	-290.77
1.17188 	-0.953125 	0.5 	-290.634
1.1875 	-0.953125 	0.5 	-290.497
1.20312 	-0.953125 	0.5 	-290.384
1.21875 	-0.953125 	0.5 	-290.27
1.23438 	-0.953125 	0.5 	-290.16
1.25 	-0.953125 	0.5 	-290.061
1.26562 	-0.953125 	0.5 	-289.958
1.28125 	-0.953125 	0.5 	-289.863
1.29688 	-0.953125 	0.5 	-289.774
1.3125 	-0.953125 	0.5 	-289.684
1.32812 	-0.953125 	0.5 	-289.589
1.34375 	-0.953125 	0.5 	-289.457
1.35938 	-0.953125 	0.5 	-289.37
1.375 	-0.953125 	0.5 	-289.265
1.39062 	-0.953125 	0.5 	-289.166
1.40625 	-0.953125 	0.5 	-289.086
1.42188 	-0.953125 	0.5 	-288.996
1.4375 	-0.953125 	0.5 	-288.93
1.45312 	-0.953125 	0.5 	-288.865
1.46875 	-0.953125 	0.5 	-288.802
1.48438 	-0.953125 	0.5 	-288.754
-0.5 	-0.9375 	0.5 	-285.606
-0.484375 	-0.9375 	0.5 	-285.69
-0.46875 	-0.9375 	0.5 	-285.784
-0.453125 	-0.9375 	0.5 	-285.879
-0.4375 	-0.9375 	0.5 	-285.997
-0.421875 	-0.9375 	0.5 	-286.111
-0.40625 	-0.9375 	0.5 	-286.209
-0.390625 	-0.9375 	0.5 	-286.332
-0.375 	-0.9375 	0.5 	-286.431
-0.359375 	-0.9375 	0.5 	-286.517
-0.34375 	-0.9375 	0.5 	-286.661
-0.328125 	-0.9375 	0.5 	-286.824
-0.3125 	-0.9375 	0.5 	-286.966
-0.296875 	-0.9375 	0.5 	-287.13
-0.28125 	-0.9375 	0.5 	-287.285
-0.265625 	-0.9375 	0.5 	-287.432
-0.25 	-0.9375 	0.5 	-287.608
-0.234375 	-0.9375 	0.5 	-287.773
-0.21875 	-0.9375 	0.5 	-287.965
-0.203125 	-0.9375 	0.5 	-288.128
-0.1875 	-0.9375 	0.5 	-288.295
-0.171875 	-0.9375 	0.5 	-288.485
-0.15625 	-0.9375 	0.5 	-288.683
-0.140625 	-0.9375 	0.5 	-288.895
-0.125 	-0.9375 	0.5 	-289.047
-0.109375 	-0.9375 	0.5 	-289.231
-0.09375 	-0.9375 	0.5 	-289.442
-0.078125 	-0.9375 	0.5 	-289.635
-0.0625 	-0.9375 	0.5 	-289.837
-0.046875 	-0.9375 	0.5 	-290.042
-0.03125 	-0.9375 	0.5 	-290.251
-0.015625 	-0.9375 	0.5 	-290.469
0 	-0.9375 	0.5 	-290.7
0.015625 	-0.9375 	0.5 	-290.895
0.03125 	-0.9375 	0.5 	-291.132
0.046875 	-0.9375 	0.5 	-291.315
0.0625 	-0.9375 	0.5 	-291.476
0.078125 	-0.9375 	0.5 	-291.667
0.09375 	-0.9375 	0.5 	-291.883
0.109375 	-0.9375 	0.5 	-292.07
0.125 	-0.9375 	0.5 	-292.248
0.140625 	-0.9375 	0.5 	-292.422
0.15625 	-0.9375 	0.5 	-292.581
0.171875 	-0.9375 	0.5 	-292.758
0.1875 	-0.9375 	0.5 	-292.942
0.203125 	-0.9375 	0.5 	-293.107
0.21875 	-0.9375 	0.5 	-293.265
0.234375 	-0.9375 	0.5 	-293.426
0.25 	-0.9375 	0.5 	-293.576
0.265625 	-0.9375 	0.5 	-293.678
0.28125 	-0.9375 	0.5 	-293.799
0.296875 	-0.9375 	0.5 	-293.933
0.3125 	-0.9375 	0.5 	-294.063
0.328125 	-0.9375 	0.5 	-294.176
0.34375 	-0.9375 	0.5 	-294.29
0.359375 	-0.9375 	0.5 	-294.371
0.375 	-0.9375 	0.5 	-294.452
0.390625 	-0.9375 	0.5 	-294.521
0.40625 	-0.9375 	0.5 	-294.635
0.421875 	-0.9375 	0.5 	-294.709
0.4375 	-0.9375 	0.5 	-294.723
0.453125 	-0.9375 	0.5 	-294.758
0.46875 	-0.9375 	0.5 	-294.792
0.484375 	-0.9375 	0.5 	-294.816
0.5 	-0.9375 	0.5 	-294.836
0.515625 	-0.9375 	0.5 	-294.86
0.53125 	-0.9375 	0.5 	-294.878
0.546875 	-0.9375 	0.5 	-294.861
0.5625 	-0.9375 	0.5 	-294.856
0.578125 	-0.9375 	0.5 	-294.849
0.59375 	-0.9375 	0.5 	-294.733
0.609375 	-0.9375 	0.5 	-294.667
0.625 	-0.9375 	0.5 	-294.674
0.640625 	-0.9375 	0.5 	-294.641
0.65625 	-0.9375 	0.5 	-294.606
0.671875 	-0.9375 	0.5 	-294.52
0.6875 	-0.9375 	0.5 	-294.464
0.703125 	-0.9375 	0.5 	-294.391
0.71875 	-0.9375 	0.5 	-294.282
0.734375 	-0.9375 	0.5 	-294.196
0.75 	-0.9375 	0.5 	-294.107
0.765625 	-0.9375 	0.5 	-294
0.78125 	-0.9375 	0.5 	-293.885
0.796875 	-0.9375 	0.5 	-293.818
0.8125 	-0.9375 	0.5 	-293.682
0.828125 	-0.9375 	0.5 	-293.57
0.84375 	-0.9375 	0.5 	-293.441
0.859375 	-0.9375 	0.5 	-293.34
0.875 	-0.9375 	0.5 	-293.202
0.890625 	-0.9375 	0.5 	-293.066
0.90625 	-0.9375 	0.5 	-292.902
0.921875 	-0.9375 	0.5 	-292.776
0.9375 	-0.9375 	0.5 	-292.66
0.953125 	-0.9375 	0.5 	-292.528
0.96875 	-0.9375 	0.5 	-292.387
0.984375 	-0.9375 	0.5 	-292.25
1 	-0.9375 	0.5 	-292.117
1.01562 	-0.9375 	0.5 	-291.974
1.03125 	-0.9375 	0.5 	-291.84
1.04688 	-0.9375 	0.5 	-291.689
1.0625 	-0.9375 	0.5 	-291.553
1.07812 	-0.9375 	0.5 	-291.425
1.09375 	-0.9375 	0.5 	-291.285
1.10938 	-0.9375 	0.5 	-291.141
1.125 	-0.9375 	0.5 	-291.005
1.14062 	-0.9375 	0.5 	-290.911
1.15625 	-0.9375 	0.5 	-290.781
1.17188 	-0.9375 	0.5 	-290.653
1.1875 	-0.9375 	0.5 	-290.507
1.20312 	-0.9375 	0.5 	-290.38
1.21875 	-0.9375 	0.5 	-290.256
1.23438 	-0.9375 	0.5 	-290.146
1.25 	-0.9375 	0.5 	-290.047
1.26562 	-0.9375 	0.5 	-289.946
1.28125 	-0.9375 	0.5 	-289.823
1.29688 	-0.9375 	0.5 	-289.745
1.3125 	-0.9375 	0.5 	-289.645
1.32812 	-0.9375 	0.5 	-289.524
1.34375 	-0.9375 	0.5 	-289.42
1.35938 	-0.9375 	0.5 	-289.331
1.375 	-0.9375 	0.5 	-289.227
1.39062 	-0.9375 	0.5 	-289.125
1.40625 	-0.9375 	0.5 	-289.043
1.42188 	-0.9375 	0.5 	-288.959
1.4375 	-0.9375 	0.5 	-288.893
1.45312 	-0.9375 	0.5 	-288.828
1.46875 	-0.9375 	0.5 	-288.749
1.48438 	-0.9375 	0.5 	-288.693
-0.5 	-0.921875 	0.5 	-285.497
-0.484375 	-0.921875 	0.5 	-285.584
-0.46875 	-0.921875 	0.5 	-285.672
-0.453125 	-0.921875 	0.5 	-285.774
-0.4375 	-0.921875 	0.5 	-285.89
-0.421875 	-0.921875 	0.5 	-286.001
-0.40625 	-0.921875 	0.5 	-286.113
-0.390625 	-0.921875 	0.5 	-286.221
-0.375 	-0.921875 	0.5 	-286.319
-0.359375 	-0.921875 	0.5 	-286.462
-0.34375 	-0.921875 	0.5 	-286.594
-0.328125 	-0.921875 	0.5 	-286.711
-0.3125 	-0.921875 	0.5 	-286.89
-0.296875 	-0.921875 	0.5 	-287.074
-0.28125 	-0.921875 	0.5 	-287.219
-0.265625 	-0.921875 	0.5 	-287.349
-0.25 	-0.921875 	0.5 	-287.535
-0.234375 	-0.921875 	0.5 	-287.729
-0.21875 	-0.921875 	0.5 	-287.92
-0.203125 	-0.921875 	0.5 	-288.081
-0.1875 	-0.921875 	0.5 	-288.268
-0.171875 	-0.921875 	0.5 	-288.462
-0.15625 	-0.921875 	0.5 	-288.656
-0.140625 	-0.921875 	0.5 	-288.852
-0.125 	-0.921875 	0.5 	-289.036
-0.109375 	-0.921875 	0.5 	-289.237
-0.09375 	-0.921875 	0.5 	-289.431
-0.078125 	-0.921875 	0.5 	-289.634
-0.0625 	-0.921875 	0.5 	-289.857
-0.046875 	-0.921875 	0.5 	-290.068
-0.03125 	-0.921875 	0.5 	-290.274
-0.015625 	-0.921875 	0.5 	-290.489
0 	-0.921875 	0.5 	-290.714
0.015625 	-0.921875 	0.5 	-290.943
0.03125 	-0.921875 	0.5 	-291.146
0.046875 	-0.921875 	0.5 	-291.31
0.0625 	-0.921875 	0.5 	-291.579
0.078125 	-0.921875 	0.5 	-291.803
0.09375 	-0.921875 	0.5 	-291.982
0.109375 	-0.921875 	0.5 	-292.186
0.125 	-0.921875 	0.5 	-292.371
0.140625 	-0.921875 	0.5 	-292.536
0.15625 	-0.921875 	0.5 	-292.735
0.171875 	-0.921875 	0.5 	-292.913
0.1875 	-0.921875 	0.5 	-293.086
0.203125 	-0.921875 	0.5 	-293.253
0.21875 	-0.921875 	0.5 	-293.419
0.234375 	-0.921875 	0.5 	-293.577
0.25 	-0.921875 	0.5 	-293.724
0.265625 	-0.921875 	0.5 	-293.877
0.28125 	-0.921875 	0.5 	-294.007
0.296875 	-0.921875 	0.5 	-294.143
0.3125 	-0.921875 	0.5 	-294.299
0.328125 	-0.921875 	0.5 	-294.391
0.34375 	-0.921875 	0.5 	-294.499
0.359375 	-0.921875 	0.5 	-294.575
0.375 	-0.921875 	0.5 	-294.647
0.390625 	-0.921875 	0.5 	-294.746
0.40625 	-0.921875 	0.5 	-294.855
0.421875 	-0.921875 	0.5 	-294.924
0.4375 	-0.921875 	0.5 	-294.935
0.453125 	-0.921875 	0.5 	-294.966
0.46875 	-0.921875 	0.5 	-294.992
0.484375 	-0.921875 	0.5 	-295.01
0.5 	-0.921875 	0.5 	-295.034
0.515625 	-0.921875 	0.5 	-295.055
0.53125 	-0.921875 	0.5 	-295.059
0.546875 	-0.921875 	0.5 	-295.074
0.5625 	-0.921875 	0.5 	-295.038
0.578125 	-0.921875 	0.5 	-295.01
0.59375 	-0.921875 	0.5 	-294.985
0.609375 	-0.921875 	0.5 	-294.941
0.625 	-0.921875 	0.5 	-294.882
0.640625 	-0.921875 	0.5 	-294.823
0.65625 	-0.921875 	0.5 	-294.789
0.671875 	-0.921875 	0.5 	-294.705
0.6875 	-0.921875 	0.5 	-294.643
0.703125 	-0.921875 	0.5 	-294.584
0.71875 	-0.921875 	0.5 	-294.46
0.734375 	-0.921875 	0.5 	-294.359
0.75 	-0.921875 	0.5 	-294.263
0.765625 	-0.921875 	0.5 	-294.156
0.78125 	-0.921875 	0.5 	-294.047
0.796875 	-0.921875 	0.5 	-293.932
0.8125 	-0.921875 	0.5 	-293.824
0.828125 	-0.921875 	0.5 	-293.694
0.84375 	-0.921875 	0.5 	-293.582
0.859375 	-0.921875 	0.5 	-293.46
0.875 	-0.921875 	0.5 	-293.333
0.890625 	-0.921875 	0.5 	-293.184
0.90625 	-0.921875 	0.5 	-293.038
0.921875 	-0.921875 	0.5 	-292.891
0.9375 	-0.921875 	0.5 	-292.753
0.953125 	-0.921875 	0.5 	-292.592
0.96875 	-0.921875 	0.5 	-292.461
0.984375 	-0.921875 	0.5 	-292.318
1 	-0.921875 	0.5 	-292.184
1.01562 	-0.921875 	0.5 	-292.036
1.03125 	-0.921875 	0.5 	-291.9
1.04688 	-0.921875 	0.5 	-291.753
1.0625 	-0.921875 	0.5 	-291.593
1.07812 	-0.921875 	0.5 	-291.435
1.09375 	-0.921875 	0.5 	-291.311
1.10938 	-0.921875 	0.5 	-291.177
1.125 	-0.921875 	0.5 	-291.022
1.14062 	-0.921875 	0.5 	-290.898
1.15625 	-0.921875 	0.5 	-290.783
1.17188 	-0.921875 	0.5 	-290.638
1.1875 	-0.921875 	0.5 	-290.479
1.20312 	-0.921875 	0.5 	-290.358
1.21875 	-0.921875 	0.5 	-290.247
1.23438 	-0.921875 	0.5 	-290.132
1.25 	-0.921875 	0.5 	-290.034
1.26562 	-0.921875 	0.5 	-289.916
1.28125 	-0.921875 	0.5 	-289.78
1.29688 	-0.921875 	0.5 	-289.688
1.3125 	-0.921875 	0.5 	-289.577
1.32812 	-0.921875 	0.5 	-289.483
1.34375 	-0.921875 	0.5 	-289.361
1.35938 	-0.921875 	0.5 	-289.304
1.375 	-0.921875 	0.5 	-289.225
1.39062 	-0.921875 	0.5 	-289.094
1.40625 	-0.921875 	0.5 	-288.999
1.42188 	-0.921875 	0.5 	-288.929
1.4375 	-0.921875 	0.5 	-288.866
1.45312 	-0.921875 	0.5 	-288.79
1.46875 	-0.921875 	0.5 	-288.7
1.48438 	-0.921875 	0.5 	-288.634
-0.5 	-0.90625 	0.5 	-285.358
-0.484375 	-0.90625 	0.5 	-285.444
-0.46875 	-0.90625 	0.5 	-285.542
-0.453125 	-0.90625 	0.5 	-285.641
-0.4375 	-0.90625 	0.5 	-285.745
-0.421875 	-0.90625 	0.5 	-285.86
-0.40625 	-0.90625 	0.5 	-285.98
-0.390625 	-0.90625 	0.5 	-286.117
-0.375 	-0.90625 	0.5 	-286.227
-0.359375 	-0.90625 	0.5 	-286.325
-0.34375 	-0.90625 	0.5 	-286.446
-0.328125 	-0.90625 	0.5 	-286.611
-0.3125 	-0.90625 	0.5 	-286.797
-0.296875 	-0.90625 	0.5 	-286.973
-0.28125 	-0.90625 	0.5 	-287.102
-0.265625 	-0.90625 	0.5 	-287.229
-0.25 	-0.90625 	0.5 	-287.444
-0.234375 	-0.90625 	0.5 	-287.639
-0.21875 	-0.90625 	0.5 	-287.826
-0.203125 	-0.90625 	0.5 	-288.029
-0.1875 	-0.90625 	0.5 	-288.214
-0.171875 	-0.90625 	0.5 	-288.411
-0.15625 	-0.90625 	0.5 	-288.61
-0.140625 	-0.90625 	0.5 	-288.826
-0.125 	-0.90625 	0.5 	-289.02
-0.109375 	-0.90625 	0.5 	-289.199
-0.09375 	-0.90625 	0.5 	-289.41
-0.078125 	-0.90625 	0.5 	-289.629
-0.0625 	-0.90625 	0.5 	-289.854
-0.046875 	-0.90625 	0.5 	-290.089
-0.03125 	-0.90625 	0.5 	-290.297
-0.015625 	-0.90625 	0.5 	-290.516
0 	-0.90625 	0.5 	-290.739
0.015625 	-0.90625 	0.5 	-290.972
0.03125 	-0.90625 	0.5 	-291.193
0.046875 	-0.90625 	0.5 	-291.38
0.0625 	-0.90625 	0.5 	-291.619
0.078125 	-0.90625 	0.5 	-291.857
0.09375 	-0.90625 	0.5 	-292.096
0.109375 	-0.90625 	0.5 	-292.294
0.125 	-0.90625 	0.5 	-292.479
0.140625 	-0.90625 	0.5 	-292.667
0.15625 	-0.90625 	0.5 	-292.884
0.171875 	-0.90625 	0.5 	-293.068
0.1875 	-0.90625 	0.5 	-293.25
0.203125 	-0.90625 	0.5 	-293.426
0.21875 	-0.90625 	0.5 	-293.581
0.234375 	-0.90625 	0.5 	-293.737
0.25 	-0.90625 	0.5 	-293.939
0.265625 	-0.90625 	0.5 	-294.069
0.28125 	-0.90625 	0.5 	-294.207
0.296875 	-0.90625 	0.5 	-294.344
0.3125 	-0.90625 	0.5 	-294.479
0.328125 	-0.90625 	0.5 	-294.613
0.34375 	-0.90625 	0.5 	-294.708
0.359375 	-0.90625 	0.5 	-294.795
0.375 	-0.90625 	0.5 	-294.89
0.390625 	-0.90625 	0.5 	-294.99
0.40625 	-0.90625 	0.5 	-295.085
0.421875 	-0.90625 	0.5 	-295.115
0.4375 	-0.90625 	0.5 	-295.152
0.453125 	-0.90625 	0.5 	-295.172
0.46875 	-0.90625 	0.5 	-295.189
0.484375 	-0.90625 	0.5 	-295.238
0.5 	-0.90625 	0.5 	-295.239
0.515625 	-0.90625 	0.5 	-295.289
0.53125 	-0.90625 	0.5 	-295.293
0.546875 	-0.90625 	0.5 	-295.309
0.5625 	-0.90625 	0.5 	-295.277
0.578125 	-0.90625 	0.5 	-295.242
0.59375 	-0.90625 	0.5 	-295.219
0.609375 	-0.90625 	0.5 	-295.169
0.625 	-0.90625 	0.5 	-295.061
0.640625 	-0.90625 	0.5 	-295.03
0.65625 	-0.90625 	0.5 	-294.966
0.671875 	-0.90625 	0.5 	-294.916
0.6875 	-0.90625 	0.5 	-294.845
0.703125 	-0.90625 	0.5 	-294.752
0.71875 	-0.90625 	0.5 	-294.644
0.734375 	-0.90625 	0.5 	-294.55
0.75 	-0.90625 	0.5 	-294.432
0.765625 	-0.90625 	0.5 	-294.328
0.78125 	-0.90625 	0.5 	-294.206
0.796875 	-0.90625 	0.5 	-294.086
0.8125 	-0.90625 	0.5 	-293.967
0.828125 	-0.90625 	0.5 	-293.842
0.84375 	-0.90625 	0.5 	-293.701
0.859375 	-0.90625 	0.5 	-293.581
0.875 	-0.90625 	0.5 	-293.434
0.890625 	-0.90625 	0.5 	-293.308
0.90625 	-0.90625 	0.5 	-293.132
0.921875 	-0.90625 	0.5 	-292.977
0.9375 	-0.90625 	0.5 	-292.84
0.953125 	-0.90625 	0.5 	-292.695
0.96875 	-0.90625 	0.5 	-292.532
0.984375 	-0.90625 	0.5 	-292.38
1 	-0.90625 	0.5 	-292.236
1.01562 	-0.90625 	0.5 	-292.091
1.03125 	-0.90625 	0.5 	-291.944
1.04688 	-0.90625 	0.5 	-291.775
1.0625 	-0.90625 	0.5 	-291.607
1.07812 	-0.90625 	0.5 	-291.46
1.09375 	-0.90625 	0.5 	-291.311
1.10938 	-0.90625 	0.5 	-291.185
1.125 	-0.90625 	0.5 	-291.041
1.14062 	-0.90625 	0.5 	-290.917
1.15625 	-0.90625 	0.5 	-290.796
1.17188 	-0.90625 	0.5 	-290.596
1.1875 	-0.90625 	0.5 	-290.489
1.20312 	-0.90625 	0.5 	-290.335
1.21875 	-0.90625 	0.5 	-290.235
1.23438 	-0.90625 	0.5 	-290.1
1.25 	-0.90625 	0.5 	-289.969
1.26562 	-0.90625 	0.5 	-289.852
1.28125 	-0.90625 	0.5 	-289.73
1.29688 	-0.90625 	0.5 	-289.632
1.3125 	-0.90625 	0.5 	-289.539
1.32812 	-0.90625 	0.5 	-289.44
1.34375 	-0.90625 	0.5 	-289.314
1.35938 	-0.90625 	0.5 	-289.241
1.375 	-0.90625 	0.5 	-289.138
1.39062 	-0.90625 	0.5 	-289.027
1.40625 	-0.90625 	0.5 	-288.949
1.42188 	-0.90625 	0.5 	-288.879
1.4375 	-0.90625 	0.5 	-288.814
1.45312 	-0.90625 	0.5 	-288.749
1.46875 	-0.90625 	0.5 	-288.651
1.48438 	-0.90625 	0.5 	-288.586
-0.5 	-0.890625 	0.5 	-285.216
-0.484375 	-0.890625 	0.5 	-285.304
-0.46875 	-0.890625 	0.5 	-285.423
-0.453125 	-0.890625 	0.5 	-285.521
-0.4375 	-0.890625 	0.5 	-285.609
-0.421875 	-0.890625 	0.5 	-285.723
-0.40625 	-0.890625 	0.5 	-285.862
-0.390625 	-0.890625 	0.5 	-286.01
-0.375 	-0.890625 	0.5 	-286.152
-0.359375 	-0.890625 	0.5 	-286.249
-0.34375 	-0.890625 	0.5 	-286.347
-0.328125 	-0.890625 	0.5 	-286.527
-0.3125 	-0.890625 	0.5 	-286.716
-0.296875 	-0.890625 	0.5 	-286.843
-0.28125 	-0.890625 	0.5 	-286.988
-0.265625 	-0.890625 	0.5 	-287.173
-0.25 	-0.890625 	0.5 	-287.328
-0.234375 	-0.890625 	0.5 	-287.556
-0.21875 	-0.890625 	0.5 	-287.743
-0.203125 	-0.890625 	0.5 	-287.974
-0.1875 	-0.890625 	0.5 	-288.154
-0.171875 	-0.890625 	0.5 	-288.353
-0.15625 	-0.890625 	0.5 	-288.586
-0.140625 	-0.890625 	0.5 	-288.791
-0.125 	-0.890625 	0.5 	-289.013
-0.109375 	-0.890625 	0.5 	-289.221