-0.5 	-1 	0.5 	-105.565
-0.484375 	-1 	0.5 	-105.306
-0.46875 	-1 	0.5 	-105.03
-0.453125 	-1 	0.5 	-104.765
-0.4375 	-1 	0.5 	-104.537
-0.421875 	-1 	0.5 	-104.306
-0.40625 	-1 	0.5 	-104.054
-0.390625 	-1 	0.5 	-103.792
-0.375 	-1 	0.5 	-103.557
-0.359375 	-1 	0.5 	-103.398
-0.34375 	-1 	0.5 	-103.234
-0.328125 	-1 	0.5 	-103.094
-0.3125 	-1 	0.5 	-102.884
-0.296875 	-1 	0.5 	-102.56
-0.28125 	-1 	0.5 	-102.342
-0.265625 	-1 	0.5 	-102.123
-0.25 	-1 	0.5 	-101.952
-0.234375 	-1 	0.5 	-101.774
-0.21875 	-1 	0.5 	-101.656
-0.203125 	-1 	0.5 	-101.482
-0.1875 	-1 	0.5 	-101.309
-0.171875 	-1 	0.5 	-101.157
-0.15625 	-1 	0.5 	-101.009
-0.140625 	-1 	0.5 	-100.852
-0.125 	-1 	0.5 	-100.715
-0.109375 	-1 	0.5 	-100.541
-0.09375 	-1 	0.5 	-100.487
-0.078125 	-1 	0.5 	-100.3
-0.0625 	-1 	0.5 	-100.151
-0.046875 	-1 	0.5 	-100.057
-0.03125 	-1 	0.5 	-99.9138
-0.015625 	-1 	0.5 	-99.8643
0 	-1 	0.5 	-99.7685
0.015625 	-1 	0.5 	-99.6603
0.03125 	-1 	0.5 	-99.5337
0.046875 	-1 	0.5 	-99.4024
0.0625 	-1 	0.5 	-99.3112
0.078125 	-1 	0.5 	-99.1864
0.09375 	-1 	0.5 	-99.0445
0.109375 	-1 	0.5 	-99.0913
0.125 	-1 	0.5 	-99.0309
0.140625 	-1 	0.5 	-98.9854
0.15625 	-1 	0.5 	-98.9817
0.171875 	-1 	0.5 	-98.8335
0.1875 	-1 	0.5 	-98.8069
0.203125 	-1 	0.5 	-98.7757
0.21875 	-1 	0.5 	-98.7213
0.234375 	-1 	0.5 	-98.6337
0.25 	-1 	0.5 	-98.5633
0.265625 	-1 	0.5 	-98.5578
0.28125 	-1 	0.5 	-98.5075
0.296875 	-1 	0.5 	-98.472
0.3125 	-1 	0.5 	-98.4209
0.328125 	-1 	0.5 	-98.3558
0.34375 	-1 	0.5 	-98.345
0.359375 	-1 	0.5 	-98.3351
0.375 	-1 	0.5 	-98.2735
0.390625 	-1 	0.5 	-98.2764
0.40625 	-1 	0.5 	-98.3389
0.421875 	-1 	0.5 	-98.3132
0.4375 	-1 	0.5 	-98.2947
0.453125 	-1 	0.5 	-98.2849
0.46875 	-1 	0.5 	-98.2897
0.484375 	-1 	0.5 	-98.3753
0.5 	-1 	0.5 	-98.3114
0.515625 	-1 	0.5 	-98.1158
0.53125 	-1 	0.5 	-98.2534
0.546875 	-1 	0.5 	-98.3967
0.5625 	-1 	0.5 	-98.4482
0.578125 	-1 	0.5 	-98.4854
0.59375 	-1 	0.5 	-98.57
0.609375 	-1 	0.5 	-98.6291
0.625 	-1 	0.5 	-98.6105
0.640625 	-1 	0.5 	-98.6752
0.65625 	-1 	0.5 	-98.7705
0.671875 	-1 	0.5 	-98.8509
0.6875 	-1 	0.5 	-98.9615
0.703125 	-1 	0.5 	-99.0418
0.71875 	-1 	0.5 	-99.1399
0.734375 	-1 	0.5 	-99.273
0.75 	-1 	0.5 	-99.4062
0.765625 	-1 	0.5 	-99.4936
0.78125 	-1 	0.5 	-99.5564
0.796875 	-1 	0.5 	-99.6863
0.8125 	-1 	0.5 	-99.877
0.828125 	-1 	0.5 	-100.049
0.84375 	-1 	0.5 	-100.215
0.859375 	-1 	0.5 	-100.293
0.875 	-1 	0.5 	-100.434
0.890625 	-1 	0.5 	-100.6
0.90625 	-1 	0.5 	-100.926
0.921875 	-1 	0.5 	-101.214
0.9375 	-1 	0.5 	-101.303
0.953125 	-1 	0.5 	-101.261
0.96875 	-1 	0.5 	-101.563
0.984375 	-1 	0.5 	-101.886
1 	-1 	0.5 	-101.994
1.01562 	-1 	0.5 	-102.147
1.03125 	-1 	0.5 	-102.632
1.04688 	-1 	0.5 	-102.804
1.0625 	-1 	0.5 	-103.163
1.07812 	-1 	0.5 	-103.334
1.09375 	-1 	0.5 	-103.517
1.10938 	-1 	0.5 	-103.708
1.125 	-1 	0.5 	-103.899
1.14062 	-1 	0.5 	-104.122
1.15625 	-1 	0.5 	-104.442
1.17188 	-1 	0.5 	-104.711
1.1875 	-1 	0.5 	-104.97
1.20312 	-1 	0.5 	-105.243
1.21875 	-1 	0.5 	-105.64
1.23438 	-1 	0.5 	-105.858
1.25 	-1 	0.5 	-106.125
1.26562 	-1 	0.5 	-106.375
1.28125 	-1 	0.5 	-106.644
1.29688 	-1 	0.5 	-106.96
1.3125 	-1 	0.5 	-107.257
1.32812 	-1 	0.5 	-107.546
1.34375 	-1 	0.5 	-107.853
1.35938 	-1 	0.5 	-108.159
1.375 	-1 	0.5 	-108.461
1.39062 	-1 	0.5 	-108.763
1.40625 	-1 	0.5 	-109.06
1.42188 	-1 	0.5 	-109.382
1.4375 	-1 	0.5 	-109.698
1.45312 	-1 	0.5 	-109.985
1.46875 	-1 	0.5 	-110.271
1.48438 	-1 	0.5 	-110.557
-0.5 	-0.984375 	0.5 	-105.342
-0.484375 	-0.984375 	0.5 	-105.052
-0.46875 	-0.984375 	0.5 	-104.857
-0.453125 	-0.984375 	0.5 	-104.553
-0.4375 	-0.984375 	0.5 	-104.313
-0.421875 	-0.984375 	0.5 	-104.083
-0.40625 	-0.984375 	0.5 	-103.836
-0.390625 	-0.984375 	0.5 	-103.588
-0.375 	-0.984375 	0.5 	-103.316
-0.359375 	-0.984375 	0.5 	-103.164
-0.34375 	-0.984375 	0.5 	-103.009
-0.328125 	-0.984375 	0.5 	-102.822
-0.3125 	-0.984375 	0.5 	-102.617
-0.296875 	-0.984375 	0.5 	-102.383
-0.28125 	-0.984375 	0.5 	-102.091
-0.265625 	-0.984375 	0.5 	-101.9
-0.25 	-0.984375 	0.5 	-101.67
-0.234375 	-0.984375 	0.5 	-101.523
-0.21875 	-0.984375 	0.5 	-101.376
-0.203125 	-0.984375 	0.5 	-101.205
-0.1875 	-0.984375 	0.5 	-101.023
-0.171875 	-0.984375 	0.5 	-100.859
-0.15625 	-0.984375 	0.5 	-100.678
-0.140625 	-0.984375 	0.5 	-100.571
-0.125 	-0.984375 	0.5 	-100.441
-0.109375 	-0.984375 	0.5 	-100.267
-0.09375 	-0.984375 	0.5 	-100.104
-0.078125 	-0.984375 	0.5 	-99.9382
-0.0625 	-0.984375 	0.5 	-99.8539
-0.046875 	-0.984375 	0.5 	-99.7708
-0.03125 	-0.984375 	0.5 	-99.6414
-0.015625 	-0.984375 	0.5 	-99.6285
0 	-0.984375 	0.5 	-99.4919
0.015625 	-0.984375 	0.5 	-99.3787
0.03125 	-0.984375 	0.5 	-99.1717
0.046875 	-0.984375 	0.5 	-99.1182
0.0625 	-0.984375 	0.5 	-99.0256
0.078125 	-0.984375 	0.5 	-98.9279
0.09375 	-0.984375 	0.5 	-98.885
0.109375 	-0.984375 	0.5 	-98.8318
0.125 	-0.984375 	0.5 	-98.7334
0.140625 	-0.984375 	0.5 	-98.6637
0.15625 	-0.984375 	0.5 	-98.5792
0.171875 	-0.984375 	0.5 	-98.5187
0.1875 	-0.984375 	0.5 	-98.4766
0.203125 	-0.984375 	0.5 	-98.4466
0.21875 	-0.984375 	0.5 	-98.4211
0.234375 	-0.984375 	0.5 	-98.3292
0.25 	-0.984375 	0.5 	-98.2664
0.265625 	-0.984375 	0.5 	-98.2198
0.28125 	-0.984375 	0.5 	-98.2011
0.296875 	-0.984375 	0.5 	-98.161
0.3125 	-0.984375 	0.5 	-98.0836
0.328125 	-0.984375 	0.5 	-98.0514
0.34375 	-0.984375 	0.5 	-98.0551
0.359375 	-0.984375 	0.5 	-98.0244
0.375 	-0.984375 	0.5 	-97.9773
0.390625 	-0.984375 	0.5 	-97.9363
0.40625 	-0.984375 	0.5 	-97.9993
0.421875 	-0.984375 	0.5 	-97.9817
0.4375 	-0.984375 	0.5 	-97.9814
0.453125 	-0.984375 	0.5 	-97.9565
0.46875 	-0.984375 	0.5 	-97.9939
0.484375 	-0.984375 	0.5 	-98.0195
0.5 	-0.984375 	0.5 	-98.0081
0.515625 	-0.984375 	0.5 	-97.9159
0.53125 	-0.984375 	0.5 	-97.9582
0.546875 	-0.984375 	0.5 	-98.0645
0.5625 	-0.984375 	0.5 	-98.1432
0.578125 	-0.984375 	0.5 	-98.1808
0.59375 	-0.984375 	0.5 	-98.206
0.609375 	-0.984375 	0.5 	-98.2446
0.625 	-0.984375 	0.5 	-98.2899
0.640625 	-0.984375 	0.5 	-98.3456
0.65625 	-0.984375 	0.5 	-98.4344
0.671875 	-0.984375 	0.5 	-98.5103
0.6875 	-0.984375 	0.5 	-98.6124
0.703125 	-0.984375 	0.5 	-98.6946
0.71875 	-0.984375 	0.5 	-98.8371
0.734375 	-0.984375 	0.5 	-98.9394
0.75 	-0.984375 	0.5 	-99.0628
0.765625 	-0.984375 	0.5 	-99.1974
0.78125 	-0.984375 	0.5 	-99.351
0.796875 	-0.984375 	0.5 	-99.4551
0.8125 	-0.984375 	0.5 	-99.5575
0.828125 	-0.984375 	0.5 	-99.6958
0.84375 	-0.984375 	0.5 	-99.8268
0.859375 	-0.984375 	0.5 	-99.9761
0.875 	-0.984375 	0.5 	-100.119
0.890625 	-0.984375 	0.5 	-100.303
0.90625 	-0.984375 	0.5 	-100.675
0.921875 	-0.984375 	0.5 	-100.836
0.9375 	-0.984375 	0.5 	-100.99
0.953125 	-0.984375 	0.5 	-101.079
0.96875 	-0.984375 	0.5 	-101.172
0.984375 	-0.984375 	0.5 	-101.773
1 	-0.984375 	0.5 	-102.018
1.01562 	-0.984375 	0.5 	-102.002
1.03125 	-0.984375 	0.5 	-102.252
1.04688 	-0.984375 	0.5 	-102.476
1.0625 	-0.984375 	0.5 	-102.785
1.07812 	-0.984375 	0.5 	-103.021
1.09375 	-0.984375 	0.5 	-103.219
1.10938 	-0.984375 	0.5 	-103.485
1.125 	-0.984375 	0.5 	-103.605
1.14062 	-0.984375 	0.5 	-103.926
1.15625 	-0.984375 	0.5 	-104.207
1.17188 	-0.984375 	0.5 	-104.481
1.1875 	-0.984375 	0.5 	-104.753
1.20312 	-0.984375 	0.5 	-105.085
1.21875 	-0.984375 	0.5 	-105.392
1.23438 	-0.984375 	0.5 	-105.699
1.25 	-0.984375 	0.5 	-105.942
1.26562 	-0.984375 	0.5 	-106.211
1.28125 	-0.984375 	0.5 	-106.493
1.29688 	-0.984375 	0.5 	-106.796
1.3125 	-0.984375 	0.5 	-107.09
1.32812 	-0.984375 	0.5 	-107.384
1.34375 	-0.984375 	0.5 	-107.698
1.35938 	-0.984375 	0.5 	-108.009
1.375 	-0.984375 	0.5 	-108.312
1.39062 	-0.984375 	0.5 	-108.628
1.40625 	-0.984375 	0.5 	-108.941
1.42188 	-0.984375 	0.5 	-109.244
1.4375 	-0.984375 	0.5 	-109.566
1.45312 	-0.984375 	0.5 	-109.882
1.46875 	-0.984375 	0.5 	-110.167
1.48438 	-0.984375 	0.5 	-110.446
-0.5 	-0.96875 	0.5 	-105.095
-0.484375 	-0.96875 	0.5 	-104.915
-0.46875 	-0.96875 	0.5 	-104.666
-0.453125 	-0.96875 	0.5 	-104.345
-0.4375 	-0.96875 	0.5 	-104.103
-0.421875 	-0.96875 	0.5 	-103.865
-0.40625 	-0.96875 	0.5 	-103.622
-0.390625 	-0.96875 	0.5 	-103.357
-0.375 	-0.96875 	0.5 	-103.091
-0.359375 	-0.96875 	0.5 	-102.872
-0.34375 	-0.96875 	0.5 	-102.652
-0.328125 	-0.96875 	0.5 	-102.485
-0.3125 	-0.96875 	0.5 	-102.271
-0.296875 	-0.96875 	0.5 	-102.054
-0.28125 	-0.96875 	0.5 	-101.849
-0.265625 	-0.96875 	0.5 	-101.653
-0.25 	-0.96875 	0.5 	-101.479
-0.234375 	-0.96875 	0.5 	-101.296
-0.21875 	-0.96875 	0.5 	-101.099
-0.203125 	-0.96875 	0.5 	-100.945
-0.1875 	-0.96875 	0.5 	-100.731
-0.171875 	-0.96875 	0.5 	-100.57
-0.15625 	-0.96875 	0.5 	-100.359
-0.140625 	-0.96875 	0.5 	-100.281
-0.125 	-0.96875 	0.5 	-100.103
-0.109375 	-0.96875 	0.5 	-99.8998
-0.09375 	-0.96875 	0.5 	-99.7744
-0.078125 	-0.96875 	0.5 	-99.6848
-0.0625 	-0.96875 	0.5 	-99.6047
-0.046875 	-0.96875 	0.5 	-99.4987
-0.03125 	-0.96875 	0.5 	-99.3441
-0.015625 	-0.96875 	0.5 	-99.3039
0 	-0.96875 	0.5 	-99.2065
0.015625 	-0.96875 	0.5 	-99.0195
0.03125 	-0.96875 	0.5 	-98.889
0.046875 	-0.96875 	0.5 	-98.8341
0.0625 	-0.96875 	0.5 	-98.7415
0.078125 	-0.96875 	0.5 	-98.6401
0.09375 	-0.96875 	0.5 	-98.5939
0.109375 	-0.96875 	0.5 	-98.5463
0.125 	-0.96875 	0.5 	-98.4559
0.140625 	-0.96875 	0.5 	-98.3446
0.15625 	-0.96875 	0.5 	-98.2351
0.171875 	-0.96875 	0.5 	-98.1736
0.1875 	-0.96875 	0.5 	-98.1338
0.203125 	-0.96875 	0.5 	-98.118
0.21875 	-0.96875 	0.5 	-98.0863
0.234375 	-0.96875 	0.5 	-97.9522
0.25 	-0.96875 	0.5 	-97.9367
0.265625 	-0.96875 	0.5 	-97.9118
0.28125 	-0.96875 	0.5 	-97.8817
0.296875 	-0.96875 	0.5 	-97.824
0.3125 	-0.96875 	0.5 	-97.7734
0.328125 	-0.96875 	0.5 	-97.7353
0.34375 	-0.96875 	0.5 	-97.7179
0.359375 	-0.96875 	0.5 	-97.6979
0.375 	-0.96875 	0.5 	-97.7021
0.390625 	-0.96875 	0.5 	-97.7616
0.40625 	-0.96875 	0.5 	-97.615
0.421875 	-0.96875 	0.5 	-97.6339
0.4375 	-0.96875 	0.5 	-97.6324
0.453125 	-0.96875 	0.5 	-97.6399
0.46875 	-0.96875 	0.5 	-97.6501
0.484375 	-0.96875 	0.5 	-97.6613
0.5 	-0.96875 	0.5 	-97.6818
0.515625 	-0.96875 	0.5 	-97.6758
0.53125 	-0.96875 	0.5 	-97.6951
0.546875 	-0.96875 	0.5 	-97.7042
0.5625 	-0.96875 	0.5 	-97.7494
0.578125 	-0.96875 	0.5 	-97.8607
0.59375 	-0.96875 	0.5 	-97.8762
0.609375 	-0.96875 	0.5 	-97.8366
0.625 	-0.96875 	0.5 	-97.9494
0.640625 	-0.96875 	0.5 	-98.0482
0.65625 	-0.96875 	0.5 	-98.104
0.671875 	-0.96875 	0.5 	-98.113
0.6875 	-0.96875 	0.5 	-98.2426
0.703125 	-0.96875 	0.5 	-98.3689
0.71875 	-0.96875 	0.5 	-98.4891
0.734375 	-0.96875 	0.5 	-98.6038
0.75 	-0.96875 	0.5 	-98.7325
0.765625 	-0.96875 	0.5 	-98.9413
0.78125 	-0.96875 	0.5 	-98.9639
0.796875 	-0.96875 	0.5 	-99.0753
0.8125 	-0.96875 	0.5 	-99.2138
0.828125 	-0.96875 	0.5 	-99.3493
0.84375 	-0.96875 	0.5 	-99.4917
0.859375 	-0.96875 	0.5 	-99.6535
0.875 	-0.96875 	0.5 	-99.9643
0.890625 	-0.96875 	0.5 	-100.124
0.90625 	-0.96875 	0.5 	-100.246
0.921875 	-0.96875 	0.5 	-100.477
0.9375 	-0.96875 	0.5 	-100.669
0.953125 	-0.96875 	0.5 	-100.734
0.96875 	-0.96875 	0.5 	-100.794
0.984375 	-0.96875 	0.5 	-101.567
1 	-0.96875 	0.5 	-101.534
1.01562 	-0.96875 	0.5 	-101.647
1.03125 	-0.96875 	0.5 	-101.802
1.04688 	-0.96875 	0.5 	-102.209
1.0625 	-0.96875 	0.5 	-102.498
1.07812 	-0.96875 	0.5 	-102.781
1.09375 	-0.96875 	0.5 	-102.935
1.10938 	-0.96875 	0.5 	-103.148
1.125 	-0.96875 	0.5 	-103.453
1.14062 	-0.96875 	0.5 	-103.701
1.15625 	-0.96875 	0.5 	-103.975
1.17188 	-0.96875 	0.5 	-104.266
1.1875 	-0.96875 	0.5 	-104.532
1.20312 	-0.96875 	0.5 	-104.858
1.21875 	-0.96875 	0.5 	-105.174
1.23438 	-0.96875 	0.5 	-105.474
1.25 	-0.96875 	0.5 	-105.771
1.26562 	-0.96875 	0.5 	-106.071
1.28125 	-0.96875 	0.5 	-106.355
1.29688 	-0.96875 	0.5 	-106.624
1.3125 	-0.96875 	0.5 	-106.912
1.32812 	-0.96875 	0.5 	-107.239
1.34375 	-0.96875 	0.5 	-107.553
1.35938 	-0.96875 	0.5 	-107.859
1.375 	-0.96875 	0.5 	-108.191
1.39062 	-0.96875 	0.5 	-108.532
1.40625 	-0.96875 	0.5 	-108.831
1.42188 	-0.96875 	0.5 	-109.101
1.4375 	-0.96875 	0.5 	-109.415
1.45312 	-0.96875 	0.5 	-109.742
1.46875 	-0.96875 	0.5 	-110.067
1.48438 	-0.96875 	0.5 	-110.39
-0.5 	-0.953125 	0.5 	-104.938
-0.484375 	-0.953125 	0.5 	-104.635
-0.46875 	-0.953125 	0.5 	-104.442
-0.453125 	-0.953125 	0.5 	-104.137
-0.4375 	-0.953125 	0.5 	-103.897
-0.421875 	-0.953125 	0.5 	-103.638
-0.40625 	-0.953125 	0.5 	-103.425
-0.390625 	-0.953125 	0.5 	-103.186
-0.375 	-0.953125 	0.5 	-102.962
-0.359375 	-0.953125 	0.5 	-102.594
-0.34375 	-0.953125 	0.5 	-102.382
-0.328125 	-0.953125 	0.5 	-102.175
-0.3125 	-0.953125 	0.5 	-101.952
-0.296875 	-0.953125 	0.5 	-101.727
-0.28125 	-0.953125 	0.5 	-101.586
-0.265625 	-0.953125 	0.5 	-101.369
-0.25 	-0.953125 	0.5 	-101.198
-0.234375 	-0.953125 	0.5 	-100.976
-0.21875 	-0.953125 	0.5 	-100.815
-0.203125 	-0.953125 	0.5 	-100.639
-0.1875 	-0.953125 	0.5 	-100.462
-0.171875 	-0.953125 	0.5 	-100.276
-0.15625 	-0.953125 	0.5 	-100.158
-0.140625 	-0.953125 	0.5 	-100.012
-0.125 	-0.953125 	0.5 	-99.7528
-0.109375 	-0.953125 	0.5 	-99.6155
-0.09375 	-0.953125 	0.5 	-99.4748
-0.078125 	-0.953125 	0.5 	-99.5022
-0.0625 	-0.953125 	0.5 	-99.3333
-0.046875 	-0.953125 	0.5 	-99.2267
-0.03125 	-0.953125 	0.5 	-99.1072
-0.015625 	-0.953125 	0.5 	-99.0195
0 	-0.953125 	0.5 	-98.8372
0.015625 	-0.953125 	0.5 	-98.6789
0.03125 	-0.953125 	0.5 	-98.59
0.046875 	-0.953125 	0.5 	-98.5386
0.0625 	-0.953125 	0.5 	-98.4516
0.078125 	-0.953125 	0.5 	-98.3469
0.09375 	-0.953125 	0.5 	-98.3171
0.109375 	-0.953125 	0.5 	-98.2355
0.125 	-0.953125 	0.5 	-98.1325
0.140625 	-0.953125 	0.5 	-98.0664
0.15625 	-0.953125 	0.5 	-97.9833
0.171875 	-0.953125 	0.5 	-97.9108
0.1875 	-0.953125 	0.5 	-97.8725
0.203125 	-0.953125 	0.5 	-97.7798
0.21875 	-0.953125 	0.5 	-97.724
0.234375 	-0.953125 	0.5 	-97.6595
0.25 	-0.953125 	0.5 	-97.6009
0.265625 	-0.953125 	0.5 	-97.5885
0.28125 	-0.953125 	0.5 	-97.5488
0.296875 	-0.953125 	0.5 	-97.4938
0.3125 	-0.953125 	0.5 	-97.4449
0.328125 	-0.953125 	0.5 	-97.4184
0.34375 	-0.953125 	0.5 	-97.3799
0.359375 	-0.953125 	0.5 	-97.361
0.375 	-0.953125 	0.5 	-97.435
0.390625 	-0.953125 	0.5 	-97.4061
0.40625 	-0.953125 	0.5 	-97.2886
0.421875 	-0.953125 	0.5 	-97.3052
0.4375 	-0.953125 	0.5 	-97.2919
0.453125 	-0.953125 	0.5 	-97.312
0.46875 	-0.953125 	0.5 	-97.3279
0.484375 	-0.953125 	0.5 	-97.3322
0.5 	-0.953125 	0.5 	-97.3959
0.515625 	-0.953125 	0.5 	-97.4124
0.53125 	-0.953125 	0.5 	-97.4158
0.546875 	-0.953125 	0.5 	-97.3399
0.5625 	-0.953125 	0.5 	-97.3968
0.578125 	-0.953125 	0.5 	-97.4692
0.59375 	-0.953125 	0.5 	-97.4847
0.609375 	-0.953125 	0.5 	-97.5742
0.625 	-0.953125 	0.5 	-97.597
0.640625 	-0.953125 	0.5 	-97.6809
0.65625 	-0.953125 	0.5 	-97.7357
0.671875 	-0.953125 	0.5 	-97.8194
0.6875 	-0.953125 	0.5 	-97.8787
0.703125 	-0.953125 	0.5 	-98.0442
0.71875 	-0.953125 	0.5 	-98.2375
0.734375 	-0.953125 	0.5 	-98.2104
0.75 	-0.953125 	0.5 	-98.3686
0.765625 	-0.953125 	0.5 	-98.5146
0.78125 	-0.953125 	0.5 	-98.5956
0.796875 	-0.953125 	0.5 	-98.7263
0.8125 	-0.953125 	0.5 	-98.8636
0.828125 	-0.953125 	0.5 	-98.9981
0.84375 	-0.953125 	0.5 	-99.1676
0.859375 	-0.953125 	0.5 	-99.353
0.875 	-0.953125 	0.5 	-99.5996
0.890625 	-0.953125 	0.5 	-99.749
0.90625 	-0.953125 	0.5 	-99.9175
0.921875 	-0.953125 	0.5 	-100.156
0.9375 	-0.953125 	0.5 	-100.199
0.953125 	-0.953125 	0.5 	-100.252
0.96875 	-0.953125 	0.5 	-100.501
0.984375 	-0.953125 	0.5 	-100.812
1 	-0.953125 	0.5 	-101.13
1.01562 	-0.953125 	0.5 	-101.385
1.03125 	-0.953125 	0.5 	-101.531
1.04688 	-0.953125 	0.5 	-101.909
1.0625 	-0.953125 	0.5 	-102.218
1.07812 	-0.953125 	0.5 	-102.476
1.09375 	-0.953125 	0.5 	-102.651
1.10938 	-0.953125 	0.5 	-102.926
1.125 	-0.953125 	0.5 	-103.102
1.14062 	-0.953125 	0.5 	-103.486
1.15625 	-0.953125 	0.5 	-103.787
1.17188 	-0.953125 	0.5 	-104.061
1.1875 	-0.953125 	0.5 	-104.384
1.20312 	-0.953125 	0.5 	-104.654
1.21875 	-0.953125 	0.5 	-104.986
1.23438 	-0.953125 	0.5 	-105.267
1.25 	-0.953125 	0.5 	-105.567
1.26562 	-0.953125 	0.5 	-105.885
1.28125 	-0.953125 	0.5 	-106.164
1.29688 	-0.953125 	0.5 	-106.442
1.3125 	-0.953125 	0.5 	-106.772
1.32812 	-0.953125 	0.5 	-107.038
1.34375 	-0.953125 	0.5 	-107.399
1.35938 	-0.953125 	0.5 	-107.724
1.375 	-0.953125 	0.5 	-108.064
1.39062 	-0.953125 	0.5 	-108.399
1.40625 	-0.953125 	0.5 	-108.717
1.42188 	-0.953125 	0.5 	-108.995
1.4375 	-0.953125 	0.5 	-109.326
1.45312 	-0.953125 	0.5 	-109.641
1.46875 	-0.953125 	0.5 	-109.974
1.48438 	-0.953125 	0.5 	-110.275
-0.5 	-0.9375 	0.5 	-104.719
-0.484375 	-0.9375 	0.5 	-104.585
-0.46875 	-0.9375 	0.5 	-104.235
-0.453125 	-0.9375 	0.5 	-103.924
-0.4375 	-0.9375 	0.5 	-103.653
-0.421875 	-0.9375 	0.5 	-103.385
-0.40625 	-0.9375 	0.5 	-103.204
-0.390625 	-0.9375 	0.5 	-102.949
-0.375 	-0.9375 	0.5 	-102.706
-0.359375 	-0.9375 	0.5 	-102.359
-0.34375 	-0.9375 	0.5 	-102.164
-0.328125 	-0.9375 	0.5 	-101.947
-0.3125 	-0.9375 	0.5 	-101.705
-0.296875 	-0.9375 	0.5 	-101.495
-0.28125 	-0.9375 	0.5 	-101.261
-0.265625 	-0.9375 	0.5 	-101.064
-0.25 	-0.9375 	0.5 	-100.918
-0.234375 	-0.9375 	0.5 	-100.712
-0.21875 	-0.9375 	0.5 	-100.485
-0.203125 	-0.9375 	0.5 	-100.297
-0.1875 	-0.9375 	0.5 	-100.133
-0.171875 	-0.9375 	0.5 	-99.967
-0.15625 	-0.9375 	0.5 	-99.8002
-0.140625 	-0.9375 	0.5 	-99.6477
-0.125 	-0.9375 	0.5 	-99.4689
-0.109375 	-0.9375 	0.5 	-99.3174
-0.09375 	-0.9375 	0.5 	-99.1837
-0.078125 	-0.9375 	0.5 	-99.1746
-0.0625 	-0.9375 	0.5 	-99.0546
-0.046875 	-0.9375 	0.5 	-98.961
-0.03125 	-0.9375 	0.5 	-98.7996
-0.015625 	-0.9375 	0.5 	-98.684
0 	-0.9375 	0.5 	-98.4787
0.015625 	-0.9375 	0.5 	-98.335
0.03125 	-0.9375 	0.5 	-98.2981
0.046875 	-0.9375 	0.5 	-98.227
0.0625 	-0.9375 	0.5 	-98.1531
0.078125 	-0.9375 	0.5 	-98.0655
0.09375 	-0.9375 	0.5 	-97.9836
0.109375 	-0.9375 	0.5 	-97.8745
0.125 	-0.9375 	0.5 	-97.7962
0.140625 	-0.9375 	0.5 	-97.7359
0.15625 	-0.9375 	0.5 	-97.6739
0.171875 	-0.9375 	0.5 	-97.6178
0.1875 	-0.9375 	0.5 	-97.58
0.203125 	-0.9375 	0.5 	-97.4814
0.21875 	-0.9375 	0.5 	-97.4208
0.234375 	-0.9375 	0.5 	-97.3548
0.25 	-0.9375 	0.5 	-97.3449
0.265625 	-0.9375 	0.5 	-97.2812
0.28125 	-0.9375 	0.5 	-97.201
0.296875 	-0.9375 	0.5 	-97.1669
0.3125 	-0.9375 	0.5 	-97.1485
0.328125 	-0.9375 	0.5 	-97.1056
0.34375 	-0.9375 	0.5 	-97.0845
0.359375 	-0.9375 	0.5 	-97.0294
0.375 	-0.9375 	0.5 	-97.0508
0.390625 	-0.9375 	0.5 	-97.0722
0.40625 	-0.9375 	0.5 	-97.0084
0.421875 	-0.9375 	0.5 	-96.9245
0.4375 	-0.9375 	0.5 	-96.9655
0.453125 	-0.9375 	0.5 	-96.9662
0.46875 	-0.9375 	0.5 	-96.976
0.484375 	-0.9375 	0.5 	-96.9864
0.5 	-0.9375 	0.5 	-97.01
0.515625 	-0.9375 	0.5 	-97.0486
0.53125 	-0.9375 	0.5 	-97.0329
0.546875 	-0.9375 	0.5 	-97.0067
0.5625 	-0.9375 	0.5 	-97.0819
0.578125 	-0.9375 	0.5 	-97.1795
0.59375 	-0.9375 	0.5 	-97.2104
0.609375 	-0.9375 	0.5 	-97.2366
0.625 	-0.9375 	0.5 	-97.2773
0.640625 	-0.9375 	0.5 	-97.3219
0.65625 	-0.9375 	0.5 	-97.4281
0.671875 	-0.9375 	0.5 	-97.47
0.6875 	-0.9375 	0.5 	-97.5483
0.703125 	-0.9375 	0.5 	-97.7531
0.71875 	-0.9375 	0.5 	-97.786
0.734375 	-0.9375 	0.5 	-97.8992
0.75 	-0.9375 	0.5 	-98.003
0.765625 	-0.9375 	0.5 	-98.1247
0.78125 	-0.9375 	0.5 	-98.2339
0.796875 	-0.9375 	0.5 	-98.4022
0.8125 	-0.9375 	0.5 	-98.5387
0.828125 	-0.9375 	0.5 	-98.6763
0.84375 	-0.9375 	0.5 	-98.8793
0.859375 	-0.9375 	0.5 	-99.0211
0.875 	-0.9375 	0.5 	-99.2068
0.890625 	-0.9375 	0.5 	-99.3941
0.90625 	-0.9375 	0.5 	-99.6087
0.921875 	-0.9375 	0.5 	-99.8304
0.9375 	-0.9375 	0.5 	-99.9701
0.953125 	-0.9375 	0.5 	-99.9739
0.96875 	-0.9375 	0.5 	-100.321
0.984375 	-0.9375 	0.5 	-100.62
1 	-0.9375 	0.5 	-100.744
1.01562 	-0.9375 	0.5 	-101.066
1.03125 	-0.9375 	0.5 	-101.332
1.04688 	-0.9375 	0.5 	-101.623
1.0625 	-0.9375 	0.5 	-101.894
1.07812 	-0.9375 	0.5 	-102.165
1.09375 	-0.9375 	0.5 	-102.385
1.10938 	-0.9375 	0.5 	-102.556
1.125 	-0.9375 	0.5 	-102.813
1.14062 	-0.9375 	0.5 	-103.255
1.15625 	-0.9375 	0.5 	-103.545
1.17188 	-0.9375 	0.5 	-103.816
1.1875 	-0.9375 	0.5 	-104.198
1.20312 	-0.9375 	0.5 	-104.505
1.21875 	-0.9375 	0.5 	-104.776
1.23438 	-0.9375 	0.5 	-105.064
1.25 	-0.9375 	0.5 	-105.364
1.26562 	-0.9375 	0.5 	-105.682
1.28125 	-0.9375 	0.5 	-105.964
1.29688 	-0.9375 	0.5 	-106.276
1.3125 	-0.9375 	0.5 	-106.618
1.32812 	-0.9375 	0.5 	-106.946
1.34375 	-0.9375 	0.5 	-107.313
1.35938 	-0.9375 	0.5 	-107.588
1.375 	-0.9375 	0.5 	-107.974
1.39062 	-0.9375 	0.5 	-108.287
1.40625 	-0.9375 	0.5 	-108.595
1.42188 	-0.9375 	0.5 	-108.908
1.4375 	-0.9375 	0.5 	-109.217
1.45312 	-0.9375 	0.5 	-109.537
1.46875 	-0.9375 	0.5 	-109.882
1.48438 	-0.9375 	0.5 	-110.195
-0.5 	-0.921875 	0.5 	-104.51
-0.484375 	-0.921875 	0.5 	-104.269
-0.46875 	-0.921875 	0.5 	-103.928
-0.453125 	-0.921875 	0.5 	-103.609
-0.4375 	-0.921875 	0.5 	-103.401
-0.421875 	-0.921875 	0.5 	-103.134
-0.40625 	-0.921875 	0.5 	-102.948
-0.390625 	-0.921875 	0.5 	-102.67
-0.375 	-0.921875 	0.5 	-102.392
-0.359375 	-0.921875 	0.5 	-102.146
-0.34375 	-0.921875 	0.5 	-101.924
-0.328125 	-0.921875 	0.5 	-101.702
-0.3125 	-0.921875 	0.5 	-101.48
-0.296875 	-0.921875 	0.5 	-101.244
-0.28125 	-0.921875 	0.5 	-101.009
-0.265625 	-0.921875 	0.5 	-100.773
-0.25 	-0.921875 	0.5 	-100.603
-0.234375 	-0.921875 	0.5 	-100.423
-0.21875 	-0.921875 	0.5 	-100.212
-0.203125 	-0.921875 	0.5 	-99.9933
-0.1875 	-0.921875 	0.5 	-99.747
-0.171875 	-0.921875 	0.5 	-99.6598
-0.15625 	-0.921875 	0.5 	-99.4854
-0.140625 	-0.921875 	0.5 	-99.34
-0.125 	-0.921875 	0.5 	-99.1754
-0.109375 	-0.921875 	0.5 	-99.0015
-0.09375 	-0.921875 	0.5 	-98.9125
-0.078125 	-0.921875 	0.5 	-98.8118
-0.0625 	-0.921875 	0.5 	-98.7695
-0.046875 	-0.921875 	0.5 	-98.7043
-0.03125 	-0.921875 	0.5 	-98.4717
-0.015625 	-0.921875 	0.5 	-98.3512
0 	-0.921875 	0.5 	-98.1888
0.015625 	-0.921875 	0.5 	-98.0532
0.03125 	-0.921875 	0.5 	-97.9333
0.046875 	-0.921875 	0.5 	-97.9277
0.0625 	-0.921875 	0.5 	-97.8152
0.078125 	-0.921875 	0.5 	-97.7487
0.09375 	-0.921875 	0.5 	-97.6886
0.109375 	-0.921875 	0.5 	-97.5984
0.125 	-0.921875 	0.5 	-97.5108
0.140625 	-0.921875 	0.5 	-97.4238
0.15625 	-0.921875 	0.5 	-97.3585
0.171875 	-0.921875 	0.5 	-97.3042
0.1875 	-0.921875 	0.5 	-97.242
0.203125 	-0.921875 	0.5 	-97.1854
0.21875 	-0.921875 	0.5 	-97.0749
0.234375 	-0.921875 	0.5 	-97.0476
0.25 	-0.921875 	0.5 	-96.9944
0.265625 	-0.921875 	0.5 	-96.9517
0.28125 	-0.921875 	0.5 	-96.9053
0.296875 	-0.921875 	0.5 	-96.8484
0.3125 	-0.921875 	0.5 	-96.8198
0.328125 	-0.921875 	0.5 	-96.7927
0.34375 	-0.921875 	0.5 	-96.7513
0.359375 	-0.921875 	0.5 	-96.7284
0.375 	-0.921875 	0.5 	-96.6982
0.390625 	-0.921875 	0.5 	-96.7423
0.40625 	-0.921875 	0.5 	-96.5643
0.421875 	-0.921875 	0.5 	-96.6252
0.4375 	-0.921875 	0.5 	-96.638
0.453125 	-0.921875 	0.5 	-96.6628
0.46875 	-0.921875 	0.5 	-96.6161
0.484375 	-0.921875 	0.5 	-96.6275
0.5 	-0.921875 	0.5 	-96.6379
0.515625 	-0.921875 	0.5 	-96.6787
0.53125 	-0.921875 	0.5 	-96.6975
0.546875 	-0.921875 	0.5 	-96.683
0.5625 	-0.921875 	0.5 	-96.7712
0.578125 	-0.921875 	0.5 	-96.8141
0.59375 	-0.921875 	0.5 	-96.837
0.609375 	-0.921875 	0.5 	-96.8653
0.625 	-0.921875 	0.5 	-96.9167
0.640625 	-0.921875 	0.5 	-96.9708
0.65625 	-0.921875 	0.5 	-97.1561
0.671875 	-0.921875 	0.5 	-97.3432
0.6875 	-0.921875 	0.5 	-97.2261
0.703125 	-0.921875 	0.5 	-97.2639
0.71875 	-0.921875 	0.5 	-97.4161
0.734375 	-0.921875 	0.5 	-97.5081
0.75 	-0.921875 	0.5 	-97.6371
0.765625 	-0.921875 	0.5 	-97.7521
0.78125 	-0.921875 	0.5 	-97.8995
0.796875 	-0.921875 	0.5 	-98.0706
0.8125 	-0.921875 	0.5 	-98.2137
0.828125 	-0.921875 	0.5 	-98.3733
0.84375 	-0.921875 	0.5 	-98.5187
0.859375 	-0.921875 	0.5 	-98.691
0.875 	-0.921875 	0.5 	-98.8206
0.890625 	-0.921875 	0.5 	-99.0021
0.90625 	-0.921875 	0.5 	-99.224
0.921875 	-0.921875 	0.5 	-99.4778
0.9375 	-0.921875 	0.5 	-99.7446
0.953125 	-0.921875 	0.5 	-99.9436
0.96875 	-0.921875 	0.5 	-100.14
0.984375 	-0.921875 	0.5 	-100.303
1 	-0.921875 	0.5 	-100.471
1.01562 	-0.921875 	0.5 	-100.736
1.03125 	-0.921875 	0.5 	-101.049
1.04688 	-0.921875 	0.5 	-101.312
1.0625 	-0.921875 	0.5 	-101.603
1.07812 	-0.921875 	0.5 	-101.937
1.09375 	-0.921875 	0.5 	-102.191
1.10938 	-0.921875 	0.5 	-102.404
1.125 	-0.921875 	0.5 	-102.528
1.14062 	-0.921875 	0.5 	-102.886
1.15625 	-0.921875 	0.5 	-103.241
1.17188 	-0.921875 	0.5 	-103.599
1.1875 	-0.921875 	0.5 	-103.938
1.20312 	-0.921875 	0.5 	-104.259
1.21875 	-0.921875 	0.5 	-104.559
1.23438 	-0.921875 	0.5 	-104.862
1.25 	-0.921875 	0.5 	-105.173
1.26562 	-0.921875 	0.5 	-105.484
1.28125 	-0.921875 	0.5 	-105.8
1.29688 	-0.921875 	0.5 	-106.126
1.3125 	-0.921875 	0.5 	-106.453
1.32812 	-0.921875 	0.5 	-106.756
1.34375 	-0.921875 	0.5 	-107.136
1.35938 	-0.921875 	0.5 	-107.46
1.375 	-0.921875 	0.5 	-107.806
1.39062 	-0.921875 	0.5 	-108.116
1.40625 	-0.921875 	0.5 	-108.473
1.42188 	-0.921875 	0.5 	-108.805
1.4375 	-0.921875 	0.5 	-109.139
1.45312 	-0.921875 	0.5 	-109.449
1.46875 	-0.921875 	0.5 	-109.79
1.48438 	-0.921875 	0.5 	-110.097
-0.5 	-0.90625 	0.5 	-104.356
-0.484375 	-0.90625 	0.5 	-103.983
-0.46875 	-0.90625 	0.5 	-103.636
-0.453125 	-0.90625 	0.5 	-103.367
-0.4375 	-0.90625 	0.5 	-103.046
-0.421875 	-0.90625 	0.5 	-102.894
-0.40625 	-0.90625 	0.5 	-102.572
-0.390625 	-0.90625 	0.5 	-102.292
-0.375 	-0.90625 	0.5 	-102.107
-0.359375 	-0.90625 	0.5 	-101.84
-0.34375 	-0.90625 	0.5 	-101.618
-0.328125 	-0.90625 	0.5 	-101.399
-0.3125 	-0.90625 	0.5 	-101.177
-0.296875 	-0.90625 	0.5 	-100.901
-0.28125 	-0.90625 	0.5 	-100.653
-0.265625 	-0.90625 	0.5 	-100.475
-0.25 	-0.90625 	0.5 	-100.314
-0.234375 	-0.90625 	0.5 	-100.236
-0.21875 	-0.90625 	0.5 	-99.9302
-0.203125 	-0.90625 	0.5 	-99.6676
-0.1875 	-0.90625 	0.5 	-99.5281
-0.171875 	-0.90625 	0.5 	-99.3526
-0.15625 	-0.90625 	0.5 	-99.2038
-0.140625 	-0.90625 	0.5 	-99.0739
-0.125 	-0.90625 	0.5 	-98.8732
-0.109375 	-0.90625 	0.5 	-98.6249
-0.09375 	-0.90625 	0.5 	-98.6083
-0.078125 	-0.90625 	0.5 	-98.4568
-0.0625 	-0.90625 	0.5 	-98.4586
-0.046875 	-0.90625 	0.5 	-98.2998
-0.03125 	-0.90625 	0.5 	-98.1347
-0.015625 	-0.90625 	0.5 	-98.011
0 	-0.90625 	0.5 	-97.8977
0.015625 	-0.90625 	0.5 	-97.7268
0.03125 	-0.90625 	0.5 	-97.5967
0.046875 	-0.90625 	0.5 	-97.5616
0.0625 	-0.90625 	0.5 	-97.5215
0.078125 	-0.90625 	0.5 	-97.4181
0.09375 	-0.90625 	0.5 	-97.3521
0.109375 	-0.90625 	0.5 	-97.2543
0.125 	-0.90625 	0.5 	-97.1727
0.140625 	-0.90625 	0.5 	-97.1311
0.15625 	-0.90625 	0.5 	-97.0435
0.171875 	-0.90625 	0.5 	-96.9492
0.1875 	-0.90625 	0.5 	-96.8712
0.203125 	-0.90625 	0.5 	-96.8551
0.21875 	-0.90625 	0.5 	-96.8068
0.234375 	-0.90625 	0.5 	-96.7439
0.25 	-0.90625 	0.5 	-96.6719
0.265625 	-0.90625 	0.5 	-96.6393
0.28125 	-0.90625 	0.5 	-96.5856
0.296875 	-0.90625 	0.5 	-96.5295
0.3125 	-0.90625 	0.5 	-96.4976
0.328125 	-0.90625 	0.5 	-96.4563
0.34375 	-0.90625 	0.5 	-96.4349
0.359375 	-0.90625 	0.5 	-96.4152
0.375 	-0.90625 	0.5 	-96.4483
0.390625 	-0.90625 	0.5 	-96.3727
0.40625 	-0.90625 	0.5 	-96.347
0.421875 	-0.90625 	0.5 	-96.3041
0.4375 	-0.90625 	0.5 	-96.3063
0.453125 	-0.90625 	0.5 	-96.2969
0.46875 	-0.90625 	0.5 	-96.2917
0.484375 	-0.90625 	0.5 	-96.2387
0.5 	-0.90625 	0.5 	-96.2034
0.515625 	-0.90625 	0.5 	-96.2962
0.53125 	-0.90625 	0.5 	-96.3251
0.546875 	-0.90625 	0.5 	-96.3496
0.5625 	-0.90625 	0.5 	-96.3794
0.578125 	-0.90625 	0.5 	-96.4176
0.59375 	-0.90625 	0.5 	-96.4732
0.609375 	-0.90625 	0.5 	-96.5122
0.625 	-0.90625 	0.5 	-96.5886
0.640625 	-0.90625 	0.5 	-96.6565
0.65625 	-0.90625 	0.5 	-96.8454
0.671875 	-0.90625 	0.5 	-96.8376
0.6875 	-0.90625 	0.5 	-96.8445
0.703125 	-0.90625 	0.5 	-96.9313
0.71875 	-0.90625 	0.5 	-97.0195
0.734375 	-0.90625 	0.5 	-97.1688
0.75 	-0.90625 	0.5 	-97.2822
0.765625 	-0.90625 	0.5 	-97.3811
0.78125 	-0.90625 	0.5 	-97.5259
0.796875 	-0.90625 	0.5 	-97.6984
0.8125 	-0.90625 	0.5 	-97.8765
0.828125 	-0.90625 	0.5 	-98.001
0.84375 	-0.90625 	0.5 	-98.1397
0.859375 	-0.90625 	0.5 	-98.3467
0.875 	-0.90625 	0.5 	-98.5243
0.890625 	-0.90625 	0.5 	-98.6256
0.90625 	-0.90625 	0.5 	-98.8826
0.921875 	-0.90625 	0.5 	-99.1464
0.9375 	-0.90625 	0.5 	-99.3646
0.953125 	-0.90625 	0.5 	-99.5973
0.96875 	-0.90625 	0.5 	-99.866
0.984375 	-0.90625 	0.5 	-100.091
1 	-0.90625 	0.5 	-100.3
1.01562 	-0.90625 	0.5 	-100.367
1.03125 	-0.90625 	0.5 	-100.712
1.04688 	-0.90625 	0.5 	-101.005
1.0625 	-0.90625 	0.5 	-101.347
1.07812 	-0.90625 	0.5 	-101.762
1.09375 	-0.90625 	0.5 	-101.898
1.10938 	-0.90625 	0.5 	-102.104
1.125 	-0.90625 	0.5 	-102.239
1.14062 	-0.90625 	0.5 	-102.657
1.15625 	-0.90625 	0.5 	-103.025
1.17188 	-0.90625 	0.5 	-103.369
1.1875 	-0.90625 	0.5 	-103.703
1.20312 	-0.90625 	0.5 	-104.002
1.21875 	-0.90625 	0.5 	-104.343
1.23438 	-0.90625 	0.5 	-104.605
1.25 	-0.90625 	0.5 	-104.94
1.26562 	-0.90625 	0.5 	-105.311
1.28125 	-0.90625 	0.5 	-105.665
1.29688 	-0.90625 	0.5 	-105.962
1.3125 	-0.90625 	0.5 	-106.29
1.32812 	-0.90625 	0.5 	-106.557
1.34375 	-0.90625 	0.5 	-106.889
1.35938 	-0.90625 	0.5 	-107.281
1.375 	-0.90625 	0.5 	-107.649
1.39062 	-0.90625 	0.5 	-108.012
1.40625 	-0.90625 	0.5 	-108.338
1.42188 	-0.90625 	0.5 	-108.667
1.4375 	-0.90625 	0.5 	-109.021
1.45312 	-0.90625 	0.5 	-109.371
1.46875 	-0.90625 	0.5 	-109.699
1.48438 	-0.90625 	0.5 	-110.018
-0.5 	-0.890625 	0.5 	-104.188
-0.484375 	-0.890625 	0.5 	-103.81
-0.46875 	-0.890625 	0.5 	-103.446
-0.453125 	-0.890625 	0.5 	-103.125
-0.4375 	-0.890625 	0.5 	-102.925
-0.421875 	-0.890625 	0.5 	-102.685
-0.40625 	-0.890625 	0.5 	-102.338
-0.390625 	-0.890625 	0.5 	-102.061
-0.375 	-0.890625 	0.5 	-101.76
-0.359375 	-0.890625 	0.5 	-101.508
-0.34375 	-0.890625 	0.5 	-101.314
-0.328125 	-0.890625 	0.5 	-101.093
-0.3125 	-0.890625 	0.5 	-100.847
-0.296875 	-0.890625 	0.5 	-100.562
-0.28125 	-0.890625 	0.5 	-100.361
-0.265625 	-0.890625 	0.5 	-100.152
-0.25 	-0.890625 	0.5 	-100.103
-0.234375 	-0.890625 	0.5 	-99.8371
-0.21875 	-0.890625 	0.5 	-99.6062
-0.203125 	-0.890625 	0.5 	-99.404
-0.1875 	-0.890625 	0.5 	-99.2065
-0.171875 	-0.890625 	0.5 	-99.0484
-0.15625 	-0.890625 	0.5 	-98.9189
-0.140625 	-0.890625 	0.5 	-98.7237
-0.125 	-0.890625 	0.5 	-98.5707
-0.109375 	-0.890625 	0.5 	-98.4154