-0.5 	-1 	0.5 	39.9569 	-0.158983 	2.95738e-19
-0.484375 	-1 	0.5 	39.9606 	-0.162125 	5.21245e-20
-0.46875 	-1 	0.5 	39.9649 	-0.165096 	-1.53261e-20
-0.453125 	-1 	0.5 	39.969 	-0.168077 	-1.25539e-19
-0.4375 	-1 	0.5 	39.9734 	-0.170001 	-5.6116e-20
-0.421875 	-1 	0.5 	39.9779 	-0.1718 	-7.67993e-21
-0.40625 	-1 	0.5 	39.9822 	-0.173933 	5.17652e-20
-0.390625 	-1 	0.5 	39.9865 	-0.176979 	1.12375e-19
-0.375 	-1 	0.5 	39.9914 	-0.179994 	1.41899e-19
-0.359375 	-1 	0.5 	39.9967 	-0.180945 	1.50396e-20
-0.34375 	-1 	0.5 	40.0017 	-0.18249 	-7.80146e-20
-0.328125 	-1 	0.5 	40.007 	-0.184204 	-1.36986e-19
-0.3125 	-1 	0.5 	40.0127 	-0.186305 	-4.36607e-20
-0.296875 	-1 	0.5 	40.0174 	-0.189049 	2.96862e-20
-0.28125 	-1 	0.5 	40.0238 	-0.189413 	2.58294e-19
-0.265625 	-1 	0.5 	40.0293 	-0.190521 	-2.38419e-19
-0.25 	-1 	0.5 	40.0354 	-0.191193 	8.88591e-20
-0.234375 	-1 	0.5 	40.0427 	-0.191709 	3.50674e-20
-0.21875 	-1 	0.5 	40.0483 	-0.19202 	-3.33987e-19
-0.203125 	-1 	0.5 	40.0535 	-0.192365 	2.8678e-19
-0.1875 	-1 	0.5 	40.0593 	-0.192662 	4.43639e-19
-0.171875 	-1 	0.5 	40.0667 	-0.192054 	1.85904e-19
-0.15625 	-1 	0.5 	40.0735 	-0.190932 	1.53147e-19
-0.140625 	-1 	0.5 	40.0804 	-0.189338 	1.01165e-19
-0.125 	-1 	0.5 	40.087 	-0.18767 	2.26018e-20
-0.109375 	-1 	0.5 	40.0936 	-0.185809 	3.07385e-19
-0.09375 	-1 	0.5 	40.1004 	-0.183877 	3.78559e-19
-0.078125 	-1 	0.5 	40.1074 	-0.181999 	2.47122e-19
-0.0625 	-1 	0.5 	40.1137 	-0.179457 	5.43001e-19
-0.046875 	-1 	0.5 	40.1204 	-0.176627 	5.11952e-19
-0.03125 	-1 	0.5 	40.1273 	-0.173541 	2.899e-19
-0.015625 	-1 	0.5 	40.1331 	-0.169944 	-2.21136e-19
0 	-1 	0.5 	40.14 	-0.165383 	-1.24863e-19
0.015625 	-1 	0.5 	40.1468 	-0.161046 	-9.92694e-20
0.03125 	-1 	0.5 	40.1534 	-0.157011 	-1.26582e-19
0.046875 	-1 	0.5 	40.1587 	-0.152242 	2.92929e-19
0.0625 	-1 	0.5 	40.1639 	-0.147297 	4.35686e-19
0.078125 	-1 	0.5 	40.1695 	-0.142126 	1.42697e-19
0.09375 	-1 	0.5 	40.1746 	-0.136326 	2.65481e-19
0.109375 	-1 	0.5 	40.1798 	-0.130333 	3.85836e-19
0.125 	-1 	0.5 	40.185 	-0.124362 	2.25184e-19
0.140625 	-1 	0.5 	40.1897 	-0.118584 	-1.12558e-19
0.15625 	-1 	0.5 	40.1936 	-0.11136 	-8.07345e-21
0.171875 	-1 	0.5 	40.1977 	-0.104684 	-4.47375e-20
0.1875 	-1 	0.5 	40.202 	-0.0960675 	-3.60485e-19
0.203125 	-1 	0.5 	40.2056 	-0.0890174 	-2.93106e-19
0.21875 	-1 	0.5 	40.209 	-0.0822563 	-3.47448e-20
0.234375 	-1 	0.5 	40.2121 	-0.0758026 	-4.6278e-20
0.25 	-1 	0.5 	40.214 	-0.0674793 	-2.24977e-19
0.265625 	-1 	0.5 	40.2157 	-0.0591528 	-2.93054e-19
0.28125 	-1 	0.5 	40.2175 	-0.0511187 	5.56092e-20
0.296875 	-1 	0.5 	40.2187 	-0.0432625 	2.26798e-19
0.3125 	-1 	0.5 	40.2204 	-0.0353708 	5.76152e-19
0.328125 	-1 	0.5 	40.2212 	-0.027483 	4.34331e-19
0.34375 	-1 	0.5 	40.2215 	-0.019807 	5.41136e-20
0.359375 	-1 	0.5 	40.2208 	-0.0117439 	7.093e-20
0.375 	-1 	0.5 	40.2202 	-0.00354352 	8.67232e-20
0.390625 	-1 	0.5 	40.2196 	0.00466509 	1.04864e-19
0.40625 	-1 	0.5 	40.2183 	0.0126876 	7.18343e-20
0.421875 	-1 	0.5 	40.2166 	0.0204142 	1.46756e-20
0.4375 	-1 	0.5 	40.2148 	0.0275398 	-3.30211e-20
0.453125 	-1 	0.5 	40.2129 	0.0344887 	-5.42362e-20
0.46875 	-1 	0.5 	40.2105 	0.042992 	-2.35028e-19
0.484375 	-1 	0.5 	40.2086 	0.0509425 	-1.19027e-19
0.5 	-1 	0.5 	40.2056 	0.0573672 	1.73257e-20
0.515625 	-1 	0.5 	40.2008 	0.0642513 	1.3775e-19
0.53125 	-1 	0.5 	40.1967 	0.0704012 	3.81526e-19
0.546875 	-1 	0.5 	40.1921 	0.0767307 	4.448e-19
0.5625 	-1 	0.5 	40.1875 	0.0850833 	4.38388e-20
0.578125 	-1 	0.5 	40.1837 	0.0902856 	3.28373e-20
0.59375 	-1 	0.5 	40.1798 	0.0955653 	1.59574e-20
0.609375 	-1 	0.5 	40.174 	0.101977 	-5.03626e-20
0.625 	-1 	0.5 	40.1682 	0.106379 	-1.04812e-19
0.640625 	-1 	0.5 	40.1631 	0.110188 	-1.65177e-19
0.65625 	-1 	0.5 	40.1576 	0.115828 	5.80346e-20
0.671875 	-1 	0.5 	40.1523 	0.121765 	2.0934e-19
0.6875 	-1 	0.5 	40.1461 	0.126359 	-3.90647e-20
0.703125 	-1 	0.5 	40.1401 	0.128971 	2.79162e-20
0.71875 	-1 	0.5 	40.1343 	0.13245 	-4.06117e-20
0.734375 	-1 	0.5 	40.1293 	0.135387 	-5.10698e-20
0.75 	-1 	0.5 	40.1235 	0.138207 	-3.12224e-20
0.765625 	-1 	0.5 	40.1177 	0.140937 	2.92053e-20
0.78125 	-1 	0.5 	40.1112 	0.144065 	-4.20212e-21
0.796875 	-1 	0.5 	40.1055 	0.145399 	7.75003e-20
0.8125 	-1 	0.5 	40.1 	0.146991 	2.72401e-19
0.828125 	-1 	0.5 	40.0938 	0.148722 	2.66165e-19
0.84375 	-1 	0.5 	40.0873 	0.149966 	1.29282e-19
0.859375 	-1 	0.5 	40.0809 	0.151438 	-6.49412e-21
0.875 	-1 	0.5 	40.0749 	0.152063 	-1.06407e-20
0.890625 	-1 	0.5 	40.0691 	0.153268 	-1.11899e-20
0.90625 	-1 	0.5 	40.0632 	0.153559 	-2.39871e-20
0.921875 	-1 	0.5 	40.0572 	0.153606 	-3.04236e-20
0.9375 	-1 	0.5 	40.052 	0.15282 	2.82944e-19
0.953125 	-1 	0.5 	40.0465 	0.152355 	3.56555e-19
0.96875 	-1 	0.5 	40.0413 	0.151327 	2.9211e-20
0.984375 	-1 	0.5 	40.0357 	0.150684 	-8.9595e-20
1 	-1 	0.5 	40.0301 	0.149996 	4.84222e-19
1.01562 	-1 	0.5 	40.0247 	0.149478 	9.60507e-19
1.03125 	-1 	0.5 	40.0199 	0.147944 	2.43851e-19
1.04688 	-1 	0.5 	40.0154 	0.146332 	3.65345e-19
1.0625 	-1 	0.5 	40.0108 	0.144034 	-1.74893e-20
1.07812 	-1 	0.5 	40.0063 	0.142006 	2.03721e-19
1.09375 	-1 	0.5 	40.0015 	0.140115 	-7.10978e-20
1.10938 	-1 	0.5 	39.9971 	0.138764 	-1.86457e-19
1.125 	-1 	0.5 	39.9927 	0.136953 	-2.52429e-19
1.14062 	-1 	0.5 	39.9892 	0.134555 	-2.50318e-19
1.15625 	-1 	0.5 	39.9857 	0.132439 	-7.14463e-19
1.17188 	-1 	0.5 	39.982 	0.13016 	-3.04479e-19
1.1875 	-1 	0.5 	39.9786 	0.127848 	3.44945e-19
1.20312 	-1 	0.5 	39.9751 	0.125266 	2.71802e-20
1.21875 	-1 	0.5 	39.9716 	0.122279 	1.51071e-21
1.23438 	-1 	0.5 	39.9686 	0.119741 	-9.06912e-21
1.25 	-1 	0.5 	39.9657 	0.117132 	-2.61766e-20
1.26562 	-1 	0.5 	39.9634 	0.11397 	2.2652e-20
1.28125 	-1 	0.5 	39.9606 	0.111596 	1.95374e-19
1.29688 	-1 	0.5 	39.9578 	0.108463 	1.24018e-19
1.3125 	-1 	0.5 	39.9554 	0.105637 	2.75254e-19
1.32812 	-1 	0.5 	39.9534 	0.102435 	3.84543e-19
1.34375 	-1 	0.5 	39.9516 	0.0995561 	9.27338e-20
1.35938 	-1 	0.5 	39.9499 	0.0970002 	-2.33378e-19
1.375 	-1 	0.5 	39.9479 	0.0945971 	2.64906e-20
1.39062 	-1 	0.5 	39.9458 	0.0916053 	-2.04158e-19
1.40625 	-1 	0.5 	39.944 	0.0885505 	-5.88456e-19
1.42188 	-1 	0.5 	39.9423 	0.085806 	-2.99327e-19
1.4375 	-1 	0.5 	39.941 	0.0833095 	-2.25107e-19
1.45312 	-1 	0.5 	39.9399 	0.0808339 	-1.67114e-19
1.46875 	-1 	0.5 	39.9388 	0.0779833 	1.21568e-19
1.48438 	-1 	0.5 	39.9381 	0.0749573 	9.30769e-20
-0.5 	-0.984375 	0.5 	39.9534 	-0.162416 	1.55326e-19
-0.484375 	-0.984375 	0.5 	39.9573 	-0.165589 	-3.59652e-21
-0.46875 	-0.984375 	0.5 	39.9617 	-0.168509 	-5.57315e-20
-0.453125 	-0.984375 	0.5 	39.9658 	-0.171784 	-1.12306e-19
-0.4375 	-0.984375 	0.5 	39.9707 	-0.174839 	-5.23056e-20
-0.421875 	-0.984375 	0.5 	39.9752 	-0.176571 	-1.10277e-20
-0.40625 	-0.984375 	0.5 	39.9794 	-0.178931 	5.59231e-20
-0.390625 	-0.984375 	0.5 	39.9849 	-0.181505 	4.5699e-20
-0.375 	-0.984375 	0.5 	39.9897 	-0.184517 	7.4807e-20
-0.359375 	-0.984375 	0.5 	39.9943 	-0.186538 	4.37658e-20
-0.34375 	-0.984375 	0.5 	39.9993 	-0.188162 	-4.42318e-20
-0.328125 	-0.984375 	0.5 	40.0045 	-0.191222 	-4.03852e-19
-0.3125 	-0.984375 	0.5 	40.0109 	-0.192183 	-2.17055e-20
-0.296875 	-0.984375 	0.5 	40.0157 	-0.194853 	6.29622e-20
-0.28125 	-0.984375 	0.5 	40.0225 	-0.194746 	2.89886e-19
-0.265625 	-0.984375 	0.5 	40.0285 	-0.196758 	-4.46983e-20
-0.25 	-0.984375 	0.5 	40.0357 	-0.197265 	-3.27284e-20
-0.234375 	-0.984375 	0.5 	40.0427 	-0.197475 	7.60895e-20
-0.21875 	-0.984375 	0.5 	40.0494 	-0.197795 	-9.06319e-20
-0.203125 	-0.984375 	0.5 	40.055 	-0.198193 	1.54355e-19
-0.1875 	-0.984375 	0.5 	40.0615 	-0.197459 	9.29976e-20
-0.171875 	-0.984375 	0.5 	40.0677 	-0.198476 	1.3314e-19
-0.15625 	-0.984375 	0.5 	40.0753 	-0.197547 	2.44163e-19
-0.140625 	-0.984375 	0.5 	40.0828 	-0.195956 	2.4435e-19
-0.125 	-0.984375 	0.5 	40.0889 	-0.194915 	-9.79119e-20
-0.109375 	-0.984375 	0.5 	40.0958 	-0.192794 	2.83888e-19
-0.09375 	-0.984375 	0.5 	40.1027 	-0.190891 	2.9775e-19
-0.078125 	-0.984375 	0.5 	40.1099 	-0.188767 	2.71543e-19
-0.0625 	-0.984375 	0.5 	40.1172 	-0.185147 	-3.99933e-19
-0.046875 	-0.984375 	0.5 	40.1241 	-0.181774 	-7.21865e-19
-0.03125 	-0.984375 	0.5 	40.1303 	-0.179761 	-2.41887e-19
-0.015625 	-0.984375 	0.5 	40.1373 	-0.176388 	-9.47015e-20
0 	-0.984375 	0.5 	40.1438 	-0.172012 	-3.86761e-19
0.015625 	-0.984375 	0.5 	40.1505 	-0.167699 	-3.90281e-19
0.03125 	-0.984375 	0.5 	40.1575 	-0.16349 	1.08117e-19
0.046875 	-0.984375 	0.5 	40.164 	-0.158295 	7.06691e-22
0.0625 	-0.984375 	0.5 	40.1693 	-0.153229 	2.25992e-20
0.078125 	-0.984375 	0.5 	40.1747 	-0.14762 	1.22e-19
0.09375 	-0.984375 	0.5 	40.181 	-0.141362 	-3.22314e-19
0.109375 	-0.984375 	0.5 	40.1863 	-0.135319 	-4.79971e-19
0.125 	-0.984375 	0.5 	40.1914 	-0.129391 	-4.41001e-19
0.140625 	-0.984375 	0.5 	40.1963 	-0.122951 	-2.04276e-20
0.15625 	-0.984375 	0.5 	40.2005 	-0.115183 	-6.0569e-20
0.171875 	-0.984375 	0.5 	40.2046 	-0.108774 	-4.25441e-20
0.1875 	-0.984375 	0.5 	40.2089 	-0.0996277 	-5.22408e-19
0.203125 	-0.984375 	0.5 	40.2125 	-0.0926602 	-3.53946e-19
0.21875 	-0.984375 	0.5 	40.2165 	-0.0860237 	4.15183e-20
0.234375 	-0.984375 	0.5 	40.22 	-0.0780917 	-7.17542e-20
0.25 	-0.984375 	0.5 	40.2215 	-0.069906 	-3.48538e-20
0.265625 	-0.984375 	0.5 	40.2233 	-0.0615551 	5.32889e-21
0.28125 	-0.984375 	0.5 	40.2252 	-0.0530648 	3.82652e-20
0.296875 	-0.984375 	0.5 	40.227 	-0.0444778 	-1.14138e-20
0.3125 	-0.984375 	0.5 	40.2286 	-0.0370959 	-1.08816e-19
0.328125 	-0.984375 	0.5 	40.2297 	-0.0288464 	-6.07451e-20
0.34375 	-0.984375 	0.5 	40.2297 	-0.019934 	-2.81514e-19
0.359375 	-0.984375 	0.5 	40.2293 	-0.0113096 	3.68374e-19
0.375 	-0.984375 	0.5 	40.2286 	-0.00312426 	4.99964e-19
0.390625 	-0.984375 	0.5 	40.2282 	0.00543955 	8.54312e-20
0.40625 	-0.984375 	0.5 	40.2269 	0.0142502 	7.62856e-20
0.421875 	-0.984375 	0.5 	40.2251 	0.0221658 	-4.41667e-22
0.4375 	-0.984375 	0.5 	40.223 	0.0291135 	-2.66241e-20
0.453125 	-0.984375 	0.5 	40.2205 	0.0372418 	-1.27283e-19
0.46875 	-0.984375 	0.5 	40.2185 	0.0453884 	-2.139e-19
0.484375 	-0.984375 	0.5 	40.2164 	0.0536078 	-1.09183e-19
0.5 	-0.984375 	0.5 	40.2122 	0.0615741 	-9.92501e-20
0.515625 	-0.984375 	0.5 	40.2074 	0.0689737 	5.69376e-20
0.53125 	-0.984375 	0.5 	40.203 	0.0760548 	1.49983e-19
0.546875 	-0.984375 	0.5 	40.1984 	0.0831276 	5.11872e-20
0.5625 	-0.984375 	0.5 	40.1932 	0.0914492 	-1.47287e-19
0.578125 	-0.984375 	0.5 	40.189 	0.0967326 	1.67173e-20
0.59375 	-0.984375 	0.5 	40.185 	0.101715 	-1.17915e-21
0.609375 	-0.984375 	0.5 	40.182 	0.106018 	-1.43313e-21
0.625 	-0.984375 	0.5 	40.1738 	0.11051 	-1.08614e-19
0.640625 	-0.984375 	0.5 	40.1681 	0.11605 	-1.88745e-19
0.65625 	-0.984375 	0.5 	40.1624 	0.122693 	1.61376e-19
0.671875 	-0.984375 	0.5 	40.1567 	0.126925 	-3.59026e-20
0.6875 	-0.984375 	0.5 	40.1501 	0.133295 	-3.1133e-19
0.703125 	-0.984375 	0.5 	40.144 	0.136261 	-2.46633e-19
0.71875 	-0.984375 	0.5 	40.1379 	0.138448 	-1.04129e-19
0.734375 	-0.984375 	0.5 	40.1322 	0.141251 	-7.25984e-20
0.75 	-0.984375 	0.5 	40.1261 	0.144371 	-5.25401e-20
0.765625 	-0.984375 	0.5 	40.12 	0.147492 	-3.24817e-20
0.78125 	-0.984375 	0.5 	40.1138 	0.15069 	-2.03129e-20
0.796875 	-0.984375 	0.5 	40.1071 	0.152657 	5.4409e-20
0.8125 	-0.984375 	0.5 	40.1005 	0.15418 	1.20624e-19
0.828125 	-0.984375 	0.5 	40.094 	0.153534 	5.26397e-19
0.84375 	-0.984375 	0.5 	40.088 	0.156078 	-8.20726e-20
0.859375 	-0.984375 	0.5 	40.0816 	0.157244 	-1.97748e-19
0.875 	-0.984375 	0.5 	40.0763 	0.158013 	-1.34143e-20
0.890625 	-0.984375 	0.5 	40.0705 	0.157908 	-1.13737e-20
0.90625 	-0.984375 	0.5 	40.0639 	0.157895 	-2.76536e-20
0.921875 	-0.984375 	0.5 	40.0575 	0.158138 	-4.06387e-20
0.9375 	-0.984375 	0.5 	40.0518 	0.157679 	-1.56847e-19
0.953125 	-0.984375 	0.5 	40.0458 	0.157138 	-4.97143e-19
0.96875 	-0.984375 	0.5 	40.04 	0.15656 	-5.59962e-19
0.984375 	-0.984375 	0.5 	40.0348 	0.155875 	-2.15279e-19
1 	-0.984375 	0.5 	40.0294 	0.154868 	-3.38542e-19
1.01562 	-0.984375 	0.5 	40.0236 	0.153664 	1.82784e-19
1.03125 	-0.984375 	0.5 	40.0185 	0.152692 	1.76567e-19
1.04688 	-0.984375 	0.5 	40.0139 	0.150662 	-8.20328e-20
1.0625 	-0.984375 	0.5 	40.0091 	0.148707 	-4.52553e-19
1.07812 	-0.984375 	0.5 	40.0041 	0.146937 	1.2794e-19
1.09375 	-0.984375 	0.5 	40.0003 	0.144566 	5.18791e-19
1.10938 	-0.984375 	0.5 	39.9954 	0.142433 	1.93994e-19
1.125 	-0.984375 	0.5 	39.9907 	0.140339 	-1.31207e-19
1.14062 	-0.984375 	0.5 	39.9871 	0.138132 	-1.07719e-19
1.15625 	-0.984375 	0.5 	39.9835 	0.135925 	-8.09128e-20
1.17188 	-0.984375 	0.5 	39.9798 	0.133717 	-5.41062e-20
1.1875 	-0.984375 	0.5 	39.9762 	0.13151 	-2.72997e-20
1.20312 	-0.984375 	0.5 	39.9728 	0.128765 	-2.01925e-20
1.21875 	-0.984375 	0.5 	39.9694 	0.125896 	-3.53828e-20
1.23438 	-0.984375 	0.5 	39.9659 	0.123027 	-5.03232e-20
1.25 	-0.984375 	0.5 	39.9631 	0.120151 	-1.03258e-20
1.26562 	-0.984375 	0.5 	39.9605 	0.117253 	5.7173e-20
1.28125 	-0.984375 	0.5 	39.9578 	0.114115 	1.21321e-19
1.29688 	-0.984375 	0.5 	39.9556 	0.11144 	3.48632e-19
1.3125 	-0.984375 	0.5 	39.953 	0.108426 	4.11463e-19
1.32812 	-0.984375 	0.5 	39.9505 	0.104728 	2.48449e-19
1.34375 	-0.984375 	0.5 	39.9491 	0.10213 	4.575e-19
1.35938 	-0.984375 	0.5 	39.9472 	0.0992429 	1.52029e-19
1.375 	-0.984375 	0.5 	39.9453 	0.0963023 	-1.57655e-19
1.39062 	-0.984375 	0.5 	39.9437 	0.0933642 	-1.16777e-19
1.40625 	-0.984375 	0.5 	39.942 	0.0904906 	-2.19924e-19
1.42188 	-0.984375 	0.5 	39.9403 	0.0875623 	-3.29743e-19
1.4375 	-0.984375 	0.5 	39.9385 	0.0846806 	-3.38155e-19
1.45312 	-0.984375 	0.5 	39.9373 	0.0821185 	-1.49796e-19
1.46875 	-0.984375 	0.5 	39.9364 	0.0791063 	-1.25347e-19
1.48438 	-0.984375 	0.5 	39.9352 	0.076095 	-2.24706e-20
-0.5 	-0.96875 	0.5 	39.95 	-0.165902 	5.66005e-20
-0.484375 	-0.96875 	0.5 	39.9542 	-0.168847 	7.09802e-21
-0.46875 	-0.96875 	0.5 	39.9584 	-0.171776 	-7.71841e-21
-0.453125 	-0.96875 	0.5 	39.9624 	-0.175611 	-1.31743e-19
-0.4375 	-0.96875 	0.5 	39.967 	-0.179381 	-1.18459e-20
-0.421875 	-0.96875 	0.5 	39.9721 	-0.18172 	1.42011e-20
-0.40625 	-0.96875 	0.5 	39.9767 	-0.183929 	6.00809e-20
-0.390625 	-0.96875 	0.5 	39.9823 	-0.186523 	3.87867e-20
-0.375 	-0.96875 	0.5 	39.9874 	-0.189396 	5.1095e-20
-0.359375 	-0.96875 	0.5 	39.9918 	-0.192256 	8.04986e-20
-0.34375 	-0.96875 	0.5 	39.9968 	-0.195136 	-3.10824e-19
-0.328125 	-0.96875 	0.5 	40.0022 	-0.198053 	-6.02859e-19
-0.3125 	-0.96875 	0.5 	40.0088 	-0.198433 	-5.68995e-20
-0.296875 	-0.96875 	0.5 	40.0145 	-0.199827 	1.92379e-19
-0.28125 	-0.96875 	0.5 	40.0208 	-0.201614 	7.0858e-21
-0.265625 	-0.96875 	0.5 	40.0274 	-0.203592 	-1.97259e-20
-0.25 	-0.96875 	0.5 	40.0344 	-0.203651 	-2.42417e-19
-0.234375 	-0.96875 	0.5 	40.0421 	-0.203837 	-1.80531e-19
-0.21875 	-0.96875 	0.5 	40.0498 	-0.204784 	-6.57057e-20
-0.203125 	-0.96875 	0.5 	40.0562 	-0.204179 	-4.68041e-20
-0.1875 	-0.96875 	0.5 	40.0623 	-0.203901 	-2.71159e-20
-0.171875 	-0.96875 	0.5 	40.0697 	-0.204706 	-5.38056e-21
-0.15625 	-0.96875 	0.5 	40.075 	-0.204209 	-1.59154e-20
-0.140625 	-0.96875 	0.5 	40.0817 	-0.202763 	-7.11243e-20
-0.125 	-0.96875 	0.5 	40.0907 	-0.202371 	-3.46912e-19
-0.109375 	-0.96875 	0.5 	40.0979 	-0.200273 	1.17875e-19
-0.09375 	-0.96875 	0.5 	40.105 	-0.198215 	1.62125e-19
-0.078125 	-0.96875 	0.5 	40.1126 	-0.195805 	2.51966e-19
-0.0625 	-0.96875 	0.5 	40.1196 	-0.193325 	-1.17358e-20
-0.046875 	-0.96875 	0.5 	40.1264 	-0.190188 	-1.94414e-19
-0.03125 	-0.96875 	0.5 	40.1344 	-0.186206 	6.49167e-19
-0.015625 	-0.96875 	0.5 	40.1415 	-0.183493 	-6.00851e-20
0 	-0.96875 	0.5 	40.1478 	-0.17888 	-2.91334e-20
0.015625 	-0.96875 	0.5 	40.1546 	-0.174511 	-1.24526e-19
0.03125 	-0.96875 	0.5 	40.1613 	-0.170311 	2.96206e-19
0.046875 	-0.96875 	0.5 	40.1691 	-0.164463 	1.54128e-19
0.0625 	-0.96875 	0.5 	40.1745 	-0.159362 	1.5201e-19
0.078125 	-0.96875 	0.5 	40.1812 	-0.153619 	1.6661e-19
0.09375 	-0.96875 	0.5 	40.187 	-0.147309 	5.02364e-20
0.109375 	-0.96875 	0.5 	40.193 	-0.140945 	-6.18763e-19
0.125 	-0.96875 	0.5 	40.1978 	-0.135041 	1.34253e-19
0.140625 	-0.96875 	0.5 	40.2033 	-0.127511 	1.67519e-19
0.15625 	-0.96875 	0.5 	40.2071 	-0.122326 	-2.59763e-21
0.171875 	-0.96875 	0.5 	40.2117 	-0.111995 	-6.9112e-20
0.1875 	-0.96875 	0.5 	40.2166 	-0.103999 	7.35466e-20
0.203125 	-0.96875 	0.5 	40.2214 	-0.0975895 	4.43731e-19
0.21875 	-0.96875 	0.5 	40.2249 	-0.089712 	4.04238e-20
0.234375 	-0.96875 	0.5 	40.2278 	-0.0814341 	-2.22976e-20
0.25 	-0.96875 	0.5 	40.2309 	-0.0724747 	-6.00157e-20
0.265625 	-0.96875 	0.5 	40.2324 	-0.0643296 	-1.69715e-20
0.28125 	-0.96875 	0.5 	40.2344 	-0.0552154 	-9.14119e-22
0.296875 	-0.96875 	0.5 	40.2359 	-0.0457893 	-2.19708e-20
0.3125 	-0.96875 	0.5 	40.2376 	-0.0374407 	-1.09353e-19
0.328125 	-0.96875 	0.5 	40.2384 	-0.0291278 	-1.95542e-19
0.34375 	-0.96875 	0.5 	40.2381 	-0.0201685 	-5.39588e-19
0.359375 	-0.96875 	0.5 	40.2382 	-0.0111071 	-7.85344e-20
0.375 	-0.96875 	0.5 	40.2378 	-0.00268168 	1.31565e-19
0.390625 	-0.96875 	0.5 	40.2367 	0.00651911 	2.81921e-20
0.40625 	-0.96875 	0.5 	40.2356 	0.0155434 	4.96226e-20
0.421875 	-0.96875 	0.5 	40.2339 	0.0236594 	2.99048e-20
0.4375 	-0.96875 	0.5 	40.2314 	0.0323774 	2.44421e-19
0.453125 	-0.96875 	0.5 	40.2285 	0.0405932 	-8.45628e-21
0.46875 	-0.96875 	0.5 	40.2264 	0.048687 	-1.58821e-19
0.484375 	-0.96875 	0.5 	40.223 	0.056536 	-2.60509e-20
0.5 	-0.96875 	0.5 	40.2194 	0.0650306 	-1.71535e-19
0.515625 	-0.96875 	0.5 	40.2143 	0.0725871 	-1.97459e-19
0.53125 	-0.96875 	0.5 	40.2097 	0.0807164 	5.04629e-20
0.546875 	-0.96875 	0.5 	40.2044 	0.0880667 	1.317e-21
0.5625 	-0.96875 	0.5 	40.1993 	0.0959327 	-1.49551e-19
0.578125 	-0.96875 	0.5 	40.1947 	0.101638 	-7.45509e-20
0.59375 	-0.96875 	0.5 	40.1906 	0.10679 	-3.19521e-21
0.609375 	-0.96875 	0.5 	40.1854 	0.111153 	-4.58613e-20
0.625 	-0.96875 	0.5 	40.1812 	0.117459 	-5.14639e-19
0.640625 	-0.96875 	0.5 	40.1747 	0.122633 	-4.29173e-19
0.65625 	-0.96875 	0.5 	40.1673 	0.127398 	-1.58693e-19
0.671875 	-0.96875 	0.5 	40.1609 	0.131818 	-1.03914e-19
0.6875 	-0.96875 	0.5 	40.1544 	0.136032 	-1.86861e-19
0.703125 	-0.96875 	0.5 	40.1479 	0.140297 	-2.75944e-19
0.71875 	-0.96875 	0.5 	40.1416 	0.144258 	-1.70033e-20
0.734375 	-0.96875 	0.5 	40.1349 	0.148089 	-1.88163e-19
0.75 	-0.96875 	0.5 	40.1285 	0.151297 	-3.75787e-20
0.765625 	-0.96875 	0.5 	40.1225 	0.154316 	-1.7609e-20
0.78125 	-0.96875 	0.5 	40.1158 	0.157322 	-2.26984e-20
0.796875 	-0.96875 	0.5 	40.1085 	0.158141 	-1.02479e-19
0.8125 	-0.96875 	0.5 	40.1009 	0.160488 	-6.52879e-20
0.828125 	-0.96875 	0.5 	40.095 	0.160035 	1.40451e-19
0.84375 	-0.96875 	0.5 	40.0891 	0.161286 	-4.33175e-19
0.859375 	-0.96875 	0.5 	40.0826 	0.162777 	-4.28329e-19
0.875 	-0.96875 	0.5 	40.0762 	0.164859 	-5.47114e-20
0.890625 	-0.96875 	0.5 	40.0706 	0.164716 	-4.53703e-20
0.90625 	-0.96875 	0.5 	40.0638 	0.164369 	-4.04374e-20
0.921875 	-0.96875 	0.5 	40.0566 	0.164398 	-2.71988e-20
0.9375 	-0.96875 	0.5 	40.0503 	0.163774 	-1.25707e-19
0.953125 	-0.96875 	0.5 	40.045 	0.162622 	-2.32291e-19
0.96875 	-0.96875 	0.5 	40.0395 	0.161703 	-2.92545e-19
0.984375 	-0.96875 	0.5 	40.0339 	0.161066 	-3.40963e-19
1 	-0.96875 	0.5 	40.0283 	0.15989 	-2.06885e-19
1.01562 	-0.96875 	0.5 	40.0225 	0.158672 	-4.64678e-20
1.03125 	-0.96875 	0.5 	40.0167 	0.1575 	5.14211e-20
1.04688 	-0.96875 	0.5 	40.0118 	0.155591 	4.98542e-20
1.0625 	-0.96875 	0.5 	40.0069 	0.153674 	-8.77151e-20
1.07812 	-0.96875 	0.5 	40.002 	0.151868 	5.21601e-20
1.09375 	-0.96875 	0.5 	39.9974 	0.14963 	2.66475e-20
1.10938 	-0.96875 	0.5 	39.9926 	0.147192 	4.4166e-19
1.125 	-0.96875 	0.5 	39.9879 	0.144534 	-2.65931e-19
1.14062 	-0.96875 	0.5 	39.9843 	0.141966 	-1.02146e-21
1.15625 	-0.96875 	0.5 	39.9805 	0.138847 	-7.1874e-22
1.17188 	-0.96875 	0.5 	39.977 	0.137099 	3.60348e-20
1.1875 	-0.96875 	0.5 	39.9733 	0.134974 	2.02422e-20
1.20312 	-0.96875 	0.5 	39.9693 	0.132095 	-4.91186e-21
1.21875 	-0.96875 	0.5 	39.9655 	0.129442 	-9.02584e-21
1.23438 	-0.96875 	0.5 	39.9628 	0.126104 	-7.71105e-20
1.25 	-0.96875 	0.5 	39.9597 	0.12259 	-5.59699e-21
1.26562 	-0.96875 	0.5 	39.9575 	0.120737 	2.14975e-20
1.28125 	-0.96875 	0.5 	39.9546 	0.116474 	-2.1137e-21
1.29688 	-0.96875 	0.5 	39.9524 	0.113136 	-1.57702e-19
1.3125 	-0.96875 	0.5 	39.95 	0.110197 	7.0129e-20
1.32812 	-0.96875 	0.5 	39.9476 	0.10702 	1.12355e-19
1.34375 	-0.96875 	0.5 	39.9459 	0.104206 	-6.28064e-20
1.35938 	-0.96875 	0.5 	39.9436 	0.101025 	-3.91349e-19
1.375 	-0.96875 	0.5 	39.9416 	0.0978549 	-3.42995e-19
1.39062 	-0.96875 	0.5 	39.9397 	0.0945651 	8.08596e-20
1.40625 	-0.96875 	0.5 	39.938 	0.0915264 	1.49816e-19
1.42188 	-0.96875 	0.5 	39.9366 	0.0887599 	5.97269e-20
1.4375 	-0.96875 	0.5 	39.9355 	0.0862629 	-1.88008e-19
1.45312 	-0.96875 	0.5 	39.9344 	0.0831085 	-3.80831e-19
1.46875 	-0.96875 	0.5 	39.9334 	0.0799925 	-1.66676e-19
1.48438 	-0.96875 	0.5 	39.9322 	0.0770001 	-6.25381e-20
-0.5 	-0.953125 	0.5 	39.9465 	-0.169618 	1.36936e-19
-0.484375 	-0.953125 	0.5 	39.9506 	-0.173154 	-1.40014e-19
-0.46875 	-0.953125 	0.5 	39.9548 	-0.176317 	-1.42024e-19
-0.453125 	-0.953125 	0.5 	39.959 	-0.179484 	-1.56631e-19
-0.4375 	-0.953125 	0.5 	39.9638 	-0.182478 	-1.76919e-19
-0.421875 	-0.953125 	0.5 	39.9687 	-0.185392 	-2.41859e-19
-0.40625 	-0.953125 	0.5 	39.9739 	-0.189079 	4.01066e-20
-0.390625 	-0.953125 	0.5 	39.9795 	-0.192181 	4.15125e-19
-0.375 	-0.953125 	0.5 	39.9845 	-0.195039 	3.95975e-19
-0.359375 	-0.953125 	0.5 	39.9892 	-0.198044 	-1.38162e-19
-0.34375 	-0.953125 	0.5 	39.9949 	-0.199867 	5.42174e-19
-0.328125 	-0.953125 	0.5 	40.0008 	-0.201995 	4.20329e-19
-0.3125 	-0.953125 	0.5 	40.0067 	-0.204122 	2.98484e-19
-0.296875 	-0.953125 	0.5 	40.0131 	-0.206281 	6.42835e-20
-0.28125 	-0.953125 	0.5 	40.0198 	-0.208344 	3.50186e-20
-0.265625 	-0.953125 	0.5 	40.0264 	-0.210256 	1.01102e-20
-0.25 	-0.953125 	0.5 	40.0333 	-0.210661 	-1.34481e-19
-0.234375 	-0.953125 	0.5 	40.041 	-0.211345 	1.26218e-21
-0.21875 	-0.953125 	0.5 	40.0485 	-0.212482 	-1.72124e-20
-0.203125 	-0.953125 	0.5 	40.0553 	-0.214892 	-2.56777e-19
-0.1875 	-0.953125 	0.5 	40.0622 	-0.212257 	-9.17801e-20
-0.171875 	-0.953125 	0.5 	40.0681 	-0.211219 	-6.4032e-20
-0.15625 	-0.953125 	0.5 	40.0748 	-0.210637 	-9.94939e-20
-0.140625 	-0.953125 	0.5 	40.083 	-0.210024 	-2.82088e-19
-0.125 	-0.953125 	0.5 	40.0913 	-0.208926 	-2.49211e-19
-0.109375 	-0.953125 	0.5 	40.0995 	-0.207714 	4.43617e-20
-0.09375 	-0.953125 	0.5 	40.1071 	-0.20543 	6.33844e-20
-0.078125 	-0.953125 	0.5 	40.1146 	-0.203089 	5.07328e-20
-0.0625 	-0.953125 	0.5 	40.122 	-0.200748 	3.80813e-20
-0.046875 	-0.953125 	0.5 	40.1302 	-0.19747 	1.57966e-19
-0.03125 	-0.953125 	0.5 	40.1384 	-0.193638 	4.37298e-19
-0.015625 	-0.953125 	0.5 	40.1457 	-0.190616 	-2.49944e-20
0 	-0.953125 	0.5 	40.1523 	-0.186063 	7.46669e-21
0.015625 	-0.953125 	0.5 	40.159 	-0.181725 	9.99384e-20
0.03125 	-0.953125 	0.5 	40.1667 	-0.176162 	4.74696e-20
0.046875 	-0.953125 	0.5 	40.1736 	-0.170921 	1.54284e-19
0.0625 	-0.953125 	0.5 	40.1803 	-0.16529 	2.48449e-19
0.078125 	-0.953125 	0.5 	40.1866 	-0.159165 	1.31481e-19
0.09375 	-0.953125 	0.5 	40.1931 	-0.153138 	6.39822e-20
0.109375 	-0.953125 	0.5 	40.1988 	-0.146942 	2.41102e-20
0.125 	-0.953125 	0.5 	40.2047 	-0.139674 	3.03489e-19
0.140625 	-0.953125 	0.5 	40.2104 	-0.132178 	3.68489e-19
0.15625 	-0.953125 	0.5 	40.2146 	-0.125013 	5.42618e-20
0.171875 	-0.953125 	0.5 	40.2192 	-0.116065 	5.08751e-21
0.1875 	-0.953125 	0.5 	40.2241 	-0.107975 	-4.36346e-20
0.203125 	-0.953125 	0.5 	40.2293 	-0.100698 	1.37375e-19
0.21875 	-0.953125 	0.5 	40.2328 	-0.0929377 	-4.43773e-20
0.234375 	-0.953125 	0.5 	40.2358 	-0.0844075 	-2.33461e-20
0.25 	-0.953125 	0.5 	40.2388 	-0.075629 	-3.63137e-20
0.265625 	-0.953125 	0.5 	40.2419 	-0.0668504 	-4.92813e-20
0.28125 	-0.953125 	0.5 	40.2436 	-0.0575435 	-9.50135e-20
0.296875 	-0.953125 	0.5 	40.2451 	-0.0481557 	-1.47448e-19
0.3125 	-0.953125 	0.5 	40.2467 	-0.0387896 	-1.78704e-19
0.328125 	-0.953125 	0.5 	40.2474 	-0.0290703 	1.25089e-19
0.34375 	-0.953125 	0.5 	40.2472 	-0.0199322 	3.36174e-19
0.359375 	-0.953125 	0.5 	40.2473 	-0.0109956 	3.24483e-19
0.375 	-0.953125 	0.5 	40.2467 	-0.00150175 	9.94798e-20
0.390625 	-0.953125 	0.5 	40.2454 	0.00762476 	4.54975e-20
0.40625 	-0.953125 	0.5 	40.2443 	0.016696 	3.41174e-20
0.421875 	-0.953125 	0.5 	40.2425 	0.0260687 	-1.27056e-20
0.4375 	-0.953125 	0.5 	40.2396 	0.0348305 	-6.15993e-20
0.453125 	-0.953125 	0.5 	40.2367 	0.0436155 	-3.39913e-20
0.46875 	-0.953125 	0.5 	40.2335 	0.0519382 	-5.2719e-20
0.484375 	-0.953125 	0.5 	40.23 	0.0601215 	-6.24146e-20
0.5 	-0.953125 	0.5 	40.2268 	0.0687357 	-1.30207e-19
0.515625 	-0.953125 	0.5 	40.222 	0.0764634 	-5.42459e-20
0.53125 	-0.953125 	0.5 	40.2172 	0.0848862 	2.73884e-20
0.546875 	-0.953125 	0.5 	40.2127 	0.0940977 	1.95941e-20
0.5625 	-0.953125 	0.5 	40.2078 	0.100806 	4.72678e-21
0.578125 	-0.953125 	0.5 	40.2018 	0.106066 	2.94512e-21
0.59375 	-0.953125 	0.5 	40.1963 	0.111866 	-5.21127e-21
0.609375 	-0.953125 	0.5 	40.1905 	0.117098 	1.03486e-20
0.625 	-0.953125 	0.5 	40.1848 	0.122591 	1.00554e-19
0.640625 	-0.953125 	0.5 	40.1791 	0.128084 	1.9076e-19
0.65625 	-0.953125 	0.5 	40.1725 	0.133971 	6.26414e-21
0.671875 	-0.953125 	0.5 	40.1652 	0.137658 	-2.20737e-20
0.6875 	-0.953125 	0.5 	40.1586 	0.142846 	-1.06181e-19
0.703125 	-0.953125 	0.5 	40.1523 	0.146941 	3.56707e-20
0.71875 	-0.953125 	0.5 	40.1446 	0.15075 	1.20395e-19
0.734375 	-0.953125 	0.5 	40.1386 	0.155402 	-1.57157e-19
0.75 	-0.953125 	0.5 	40.1312 	0.158238 	-1.82135e-19
0.765625 	-0.953125 	0.5 	40.1243 	0.16178 	5.16883e-20
0.78125 	-0.953125 	0.5 	40.1175 	0.16377 	-1.43335e-20
0.796875 	-0.953125 	0.5 	40.1103 	0.164623 	-9.67067e-20
0.8125 	-0.953125 	0.5 	40.103 	0.165476 	-1.7908e-19
0.828125 	-0.953125 	0.5 	40.0962 	0.166489 	-2.38081e-19
0.84375 	-0.953125 	0.5 	40.0896 	0.168087 	-1.93659e-19
0.859375 	-0.953125 	0.5 	40.083 	0.169684 	-1.49236e-19
0.875 	-0.953125 	0.5 	40.0765 	0.171282 	-1.04814e-19
0.890625 	-0.953125 	0.5 	40.0696 	0.170419 	3.69029e-22
0.90625 	-0.953125 	0.5 	40.0626 	0.168909 	1.10968e-19
0.921875 	-0.953125 	0.5 	40.0554 	0.170644 	-6.80576e-20
0.9375 	-0.953125 	0.5 	40.0488 	0.169504 	-7.35291e-20
0.953125 	-0.953125 	0.5 	40.043 	0.169355 	-2.55031e-19
0.96875 	-0.953125 	0.5 	40.0376 	0.168346 	-1.95147e-19
0.984375 	-0.953125 	0.5 	40.0323 	0.16678 	-6.24709e-20
1 	-0.953125 	0.5 	40.0258 	0.165048 	-1.66815e-19
1.01562 	-0.953125 	0.5 	40.0204 	0.164382 	6.67872e-20
1.03125 	-0.953125 	0.5 	40.0144 	0.162859 	2.32231e-20
1.04688 	-0.953125 	0.5 	40.0093 	0.161421 	4.39852e-21
1.0625 	-0.953125 	0.5 	40.0043 	0.159765 	4.14469e-21
1.07812 	-0.953125 	0.5 	39.9996 	0.156894 	-1.89065e-19
1.09375 	-0.953125 	0.5 	39.9944 	0.153977 	3.86363e-19
1.10938 	-0.953125 	0.5 	39.9895 	0.151463 	3.92396e-19
1.125 	-0.953125 	0.5 	39.9851 	0.14878 	-3.90852e-19
1.14062 	-0.953125 	0.5 	39.9815 	0.146254 	-3.09287e-19
1.15625 	-0.953125 	0.5 	39.9779 	0.143695 	1.128e-19
1.17188 	-0.953125 	0.5 	39.9743 	0.141594 	1.40171e-19
1.1875 	-0.953125 	0.5 	39.9701 	0.138178 	2.43032e-20
1.20312 	-0.953125 	0.5 	39.9664 	0.135095 	-6.71918e-21
1.21875 	-0.953125 	0.5 	39.9626 	0.132428 	-1.06573e-20
1.23438 	-0.953125 	0.5 	39.9599 	0.129017 	-1.83064e-19
1.25 	-0.953125 	0.5 	39.9568 	0.125507 	-1.5752e-19
1.26562 	-0.953125 	0.5 	39.9538 	0.122486 	6.51723e-20
1.28125 	-0.953125 	0.5 	39.9514 	0.118832 	-1.25548e-19
1.29688 	-0.953125 	0.5 	39.949 	0.115646 	-9.24591e-20
1.3125 	-0.953125 	0.5 	39.9466 	0.112505 	-3.81774e-20
1.32812 	-0.953125 	0.5 	39.9443 	0.109021 	-5.51896e-20
1.34375 	-0.953125 	0.5 	39.9422 	0.10577 	-2.88137e-19
1.35938 	-0.953125 	0.5 	39.9399 	0.102571 	-6.90752e-19
1.375 	-0.953125 	0.5 	39.9381 	0.099412 	-4.56176e-19
1.39062 	-0.953125 	0.5 	39.9363 	0.0961654 	4.49687e-20
1.40625 	-0.953125 	0.5 	39.9345 	0.0931023 	1.282e-19
1.42188 	-0.953125 	0.5 	39.9335 	0.0906822 	-1.64452e-19
1.4375 	-0.953125 	0.5 	39.9322 	0.0874182 	-2.76487e-19
1.45312 	-0.953125 	0.5 	39.9311 	0.084134 	-1.42565e-19
1.46875 	-0.953125 	0.5 	39.9302 	0.0807785 	-9.24885e-19
1.48438 	-0.953125 	0.5 	39.9293 	0.0776807 	-4.96848e-19
-0.5 	-0.9375 	0.5 	39.9432 	-0.173228 	3.95122e-19
-0.484375 	-0.9375 	0.5 	39.9466 	-0.177965 	-5.12232e-20
-0.46875 	-0.9375 	0.5 	39.951 	-0.181025 	-2.58401e-19
-0.453125 	-0.9375 	0.5 	39.9552 	-0.183929 	-8.25649e-20
-0.4375 	-0.9375 	0.5 	39.9603 	-0.187697 	-1.44609e-19
-0.421875 	-0.9375 	0.5 	39.9652 	-0.190864 	-7.65386e-20
-0.40625 	-0.9375 	0.5 	39.9709 	-0.194634 	1.20513e-20
-0.390625 	-0.9375 	0.5 	39.9759 	-0.1974 	3.4762e-19
-0.375 	-0.9375 	0.5 	39.9807 	-0.200132 	1.70641e-19
-0.359375 	-0.9375 	0.5 	39.9863 	-0.20419 	-6.03974e-19
-0.34375 	-0.9375 	0.5 	39.9918 	-0.205733 	8.89116e-19
-0.328125 	-0.9375 	0.5 	39.9976 	-0.207616 	1.25149e-18
-0.3125 	-0.9375 	0.5 	40.0039 	-0.210507 	-8.42002e-20
-0.296875 	-0.9375 	0.5 	40.0109 	-0.21314 	1.90371e-20
-0.28125 	-0.9375 	0.5 	40.0182 	-0.214692 	3.75705e-20
-0.265625 	-0.9375 	0.5 	40.0254 	-0.216338 	5.052e-20
-0.25 	-0.9375 	0.5 	40.0323 	-0.217741 	8.02451e-21
-0.234375 	-0.9375 	0.5 	40.0396 	-0.219348 	2.11716e-20
-0.21875 	-0.9375 	0.5 	40.0471 	-0.22033 	2.98712e-21
-0.203125 	-0.9375 	0.5 	40.0552 	-0.219421 	-1.16527e-20
-0.1875 	-0.9375 	0.5 	40.0615 	-0.219277 	-2.93499e-20
-0.171875 	-0.9375 	0.5 	40.0679 	-0.21866 	-5.27538e-20
-0.15625 	-0.9375 	0.5 	40.0755 	-0.218697 	-3.79908e-20
-0.140625 	-0.9375 	0.5 	40.0841 	-0.217954 	-1.08362e-19
-0.125 	-0.9375 	0.5 	40.0924 	-0.216967 	-3.20896e-19
-0.109375 	-0.9375 	0.5 	40.1007 	-0.215573 	5.32015e-19
-0.09375 	-0.9375 	0.5 	40.109 	-0.213821 	1.25536e-19
-0.078125 	-0.9375 	0.5 	40.1163 	-0.211212 	1.13551e-19
-0.0625 	-0.9375 	0.5 	40.1244 	-0.208707 	1.15403e-19
-0.046875 	-0.9375 	0.5 	40.1328 	-0.206237 	-1.64083e-19
-0.03125 	-0.9375 	0.5 	40.1413 	-0.202459 	-2.16396e-19
-0.015625 	-0.9375 	0.5 	40.1501 	-0.198087 	-3.06597e-20