-0.5 	-1 	0.5 	39.2003 	0.52248 	-1.52665e-18
-0.484375 	-1 	0.5 	39.1905 	0.516707 	-5.08803e-19
-0.46875 	-1 	0.5 	39.1824 	0.51189 	-1.79694e-19
-0.453125 	-1 	0.5 	39.1746 	0.507763 	-2.25267e-19
-0.4375 	-1 	0.5 	39.1658 	0.503498 	-1.92599e-19
-0.421875 	-1 	0.5 	39.1565 	0.498826 	1.77369e-20
-0.40625 	-1 	0.5 	39.1486 	0.494541 	3.17254e-19
-0.390625 	-1 	0.5 	39.1375 	0.489742 	8.16553e-19
-0.375 	-1 	0.5 	39.127 	0.485089 	-7.38189e-19
-0.359375 	-1 	0.5 	39.1179 	0.480417 	-1.00169e-18
-0.34375 	-1 	0.5 	39.1114 	0.472261 	-2.45152e-19
-0.328125 	-1 	0.5 	39.1031 	0.467308 	-1.05605e-19
-0.3125 	-1 	0.5 	39.0954 	0.461352 	7.40731e-19
-0.296875 	-1 	0.5 	39.0874 	0.454638 	4.76155e-19
-0.28125 	-1 	0.5 	39.0803 	0.446698 	7.15426e-20
-0.265625 	-1 	0.5 	39.0715 	0.439002 	1.12842e-20
-0.25 	-1 	0.5 	39.0634 	0.431872 	-3.04465e-19
-0.234375 	-1 	0.5 	39.0562 	0.424962 	4.27896e-19
-0.21875 	-1 	0.5 	39.0488 	0.418297 	4.71626e-19
-0.203125 	-1 	0.5 	39.0414 	0.411631 	5.15356e-19
-0.1875 	-1 	0.5 	39.034 	0.404783 	5.53394e-19
-0.171875 	-1 	0.5 	39.0264 	0.397091 	3.73613e-19
-0.15625 	-1 	0.5 	39.0188 	0.389399 	1.93832e-19
-0.140625 	-1 	0.5 	39.0113 	0.381707 	1.40516e-20
-0.125 	-1 	0.5 	39.0037 	0.374236 	-1.59007e-19
-0.109375 	-1 	0.5 	38.9966 	0.366458 	-1.21112e-19
-0.09375 	-1 	0.5 	38.9899 	0.357873 	2.84229e-19
-0.078125 	-1 	0.5 	38.9831 	0.349288 	6.8957e-19
-0.0625 	-1 	0.5 	38.9765 	0.340788 	2.65841e-19
-0.046875 	-1 	0.5 	38.9703 	0.333319 	-5.93871e-19
-0.03125 	-1 	0.5 	38.9635 	0.321781 	1.02741e-19
-0.015625 	-1 	0.5 	38.957 	0.311986 	1.28357e-18
0 	-1 	0.5 	38.9486 	0.302892 	3.42698e-19
0.015625 	-1 	0.5 	38.9415 	0.293619 	3.26848e-19
0.03125 	-1 	0.5 	38.9343 	0.284345 	3.10999e-19
0.046875 	-1 	0.5 	38.9299 	0.274147 	4.58402e-19
0.0625 	-1 	0.5 	38.928 	0.263503 	7.97599e-19
0.078125 	-1 	0.5 	38.9238 	0.254185 	6.61034e-19
0.09375 	-1 	0.5 	38.916 	0.244842 	1.08175e-19
0.109375 	-1 	0.5 	38.91 	0.233674 	3.63442e-20
0.125 	-1 	0.5 	38.9044 	0.224568 	3.39036e-19
0.140625 	-1 	0.5 	38.9011 	0.212383 	2.24076e-19
0.15625 	-1 	0.5 	38.8973 	0.201686 	5.03552e-19
0.171875 	-1 	0.5 	38.8929 	0.190559 	5.42016e-20
0.1875 	-1 	0.5 	38.8879 	0.18061 	5.32041e-20
0.203125 	-1 	0.5 	38.8836 	0.169713 	1.23723e-19
0.21875 	-1 	0.5 	38.8787 	0.158734 	3.02024e-19
0.234375 	-1 	0.5 	38.8759 	0.146691 	1.79215e-20
0.25 	-1 	0.5 	38.8724 	0.134678 	4.53397e-20
0.265625 	-1 	0.5 	38.869 	0.123028 	1.42849e-20
0.28125 	-1 	0.5 	38.8652 	0.111619 	1.11008e-20
0.296875 	-1 	0.5 	38.8616 	0.100011 	2.16661e-20
0.3125 	-1 	0.5 	38.8589 	0.0878152 	3.43511e-20
0.328125 	-1 	0.5 	38.8573 	0.0754559 	2.46457e-20
0.34375 	-1 	0.5 	38.855 	0.0626623 	6.75769e-20
0.359375 	-1 	0.5 	38.8538 	0.0484532 	1.22816e-18
0.375 	-1 	0.5 	38.8512 	0.036873 	2.9899e-19
0.390625 	-1 	0.5 	38.8489 	0.0247944 	7.1439e-20
0.40625 	-1 	0.5 	38.8475 	0.0129373 	-6.03622e-19
0.421875 	-1 	0.5 	38.8462 	-3.55463e-05 	-7.51507e-19
0.4375 	-1 	0.5 	38.8461 	-0.0141671 	-3.65764e-19
0.453125 	-1 	0.5 	38.845 	-0.0264955 	1.25445e-19
0.46875 	-1 	0.5 	38.8443 	-0.039563 	1.27458e-19
0.484375 	-1 	0.5 	38.8445 	-0.0536163 	-4.60523e-19
0.5 	-1 	0.5 	38.8449 	-0.0702136 	-1.52744e-19
0.515625 	-1 	0.5 	38.8457 	-0.0838912 	-1.14168e-19
0.53125 	-1 	0.5 	38.847 	-0.0958033 	-7.17804e-20
0.546875 	-1 	0.5 	38.8485 	-0.106777 	-2.97507e-20
0.5625 	-1 	0.5 	38.8497 	-0.118049 	-2.40744e-19
0.578125 	-1 	0.5 	38.8512 	-0.131296 	-2.51896e-20
0.59375 	-1 	0.5 	38.8517 	-0.145361 	2.7193e-19
0.609375 	-1 	0.5 	38.8545 	-0.158561 	9.96108e-20
0.625 	-1 	0.5 	38.8569 	-0.171736 	4.76496e-20
0.640625 	-1 	0.5 	38.8588 	-0.18526 	-7.42326e-20
0.65625 	-1 	0.5 	38.863 	-0.198572 	-2.84377e-20
0.671875 	-1 	0.5 	38.867 	-0.211653 	1.05418e-20
0.6875 	-1 	0.5 	38.8708 	-0.224826 	5.97506e-21
0.703125 	-1 	0.5 	38.8756 	-0.238035 	1.05672e-20
0.71875 	-1 	0.5 	38.8798 	-0.251043 	-1.54403e-19
0.734375 	-1 	0.5 	38.8843 	-0.26381 	2.0536e-19
0.75 	-1 	0.5 	38.8889 	-0.276974 	1.02378e-19
0.765625 	-1 	0.5 	38.8945 	-0.28963 	1.12539e-20
0.78125 	-1 	0.5 	38.9001 	-0.30164 	-1.20509e-20
0.796875 	-1 	0.5 	38.9061 	-0.313816 	-9.19075e-22
0.8125 	-1 	0.5 	38.9132 	-0.325851 	1.41191e-20
0.828125 	-1 	0.5 	38.9196 	-0.337422 	-9.55874e-20
0.84375 	-1 	0.5 	38.9268 	-0.349202 	-1.67987e-19
0.859375 	-1 	0.5 	38.934 	-0.361021 	-3.88022e-20
0.875 	-1 	0.5 	38.9405 	-0.372612 	-2.44738e-20
0.890625 	-1 	0.5 	38.947 	-0.384025 	-4.45828e-21
0.90625 	-1 	0.5 	38.9553 	-0.393983 	6.71255e-19
0.921875 	-1 	0.5 	38.9638 	-0.406328 	-7.45716e-20
0.9375 	-1 	0.5 	38.972 	-0.416931 	3.84146e-19
0.953125 	-1 	0.5 	38.9819 	-0.428513 	1.74436e-18
0.96875 	-1 	0.5 	38.9901 	-0.437366 	-4.82201e-20
0.984375 	-1 	0.5 	38.9981 	-0.447193 	9.66886e-20
1 	-1 	0.5 	39.0066 	-0.457487 	1.39261e-19
1.01562 	-1 	0.5 	39.015 	-0.467732 	1.97533e-19
1.03125 	-1 	0.5 	39.0251 	-0.476794 	1.60973e-19
1.04688 	-1 	0.5 	39.0361 	-0.485279 	1.75405e-20
1.0625 	-1 	0.5 	39.0471 	-0.493763 	-1.25892e-19
1.07812 	-1 	0.5 	39.0568 	-0.50269 	4.5129e-20
1.09375 	-1 	0.5 	39.0666 	-0.51047 	5.86597e-20
1.10938 	-1 	0.5 	39.0764 	-0.51825 	7.21904e-20
1.125 	-1 	0.5 	39.0862 	-0.526029 	8.57211e-20
1.14062 	-1 	0.5 	39.0965 	-0.53227 	1.15996e-19
1.15625 	-1 	0.5 	39.1074 	-0.538425 	1.48608e-19
1.17188 	-1 	0.5 	39.1184 	-0.546148 	1.44659e-19
1.1875 	-1 	0.5 	39.1292 	-0.554035 	1.06079e-19
1.20312 	-1 	0.5 	39.1397 	-0.559238 	4.52289e-19
1.21875 	-1 	0.5 	39.1502 	-0.563919 	5.31673e-19
1.23438 	-1 	0.5 	39.1607 	-0.56855 	9.68274e-21
1.25 	-1 	0.5 	39.1703 	-0.573649 	-9.65101e-20
1.26562 	-1 	0.5 	39.1801 	-0.579006 	-1.27186e-19
1.28125 	-1 	0.5 	39.1909 	-0.583165 	2.44643e-19
1.29688 	-1 	0.5 	39.202 	-0.588746 	1.29197e-19
1.3125 	-1 	0.5 	39.2124 	-0.593782 	7.64928e-20
1.32812 	-1 	0.5 	39.2234 	-0.597731 	7.44053e-20
1.34375 	-1 	0.5 	39.2348 	-0.601571 	3.70219e-20
1.35938 	-1 	0.5 	39.2454 	-0.604992 	-2.48068e-20
1.375 	-1 	0.5 	39.2565 	-0.60843 	4.04732e-19
1.39062 	-1 	0.5 	39.2676 	-0.611965 	4.85384e-19
1.40625 	-1 	0.5 	39.2788 	-0.614595 	6.64809e-20
1.42188 	-1 	0.5 	39.2898 	-0.616064 	-4.42895e-21
1.4375 	-1 	0.5 	39.3 	-0.617983 	-6.50896e-20
1.45312 	-1 	0.5 	39.3109 	-0.620174 	-2.52946e-19
1.46875 	-1 	0.5 	39.3215 	-0.62045 	-4.58587e-19
1.48438 	-1 	0.5 	39.3324 	-0.625872 	-2.6209e-19
-0.5 	-0.984375 	0.5 	39.1934 	0.531274 	-8.97843e-19
-0.484375 	-0.984375 	0.5 	39.1841 	0.525735 	-4.88458e-20
-0.46875 	-0.984375 	0.5 	39.1765 	0.521275 	2.26779e-20
-0.453125 	-0.984375 	0.5 	39.1687 	0.517122 	-1.35626e-20
-0.4375 	-0.984375 	0.5 	39.1608 	0.513103 	-9.66723e-20
-0.421875 	-0.984375 	0.5 	39.1522 	0.508773 	-3.78795e-20
-0.40625 	-0.984375 	0.5 	39.1417 	0.505344 	8.84159e-19
-0.390625 	-0.984375 	0.5 	39.1306 	0.500669 	1.43303e-18
-0.375 	-0.984375 	0.5 	39.1208 	0.491918 	-2.8823e-19
-0.359375 	-0.984375 	0.5 	39.1116 	0.487454 	-6.12546e-19
-0.34375 	-0.984375 	0.5 	39.1046 	0.481739 	-5.77643e-19
-0.328125 	-0.984375 	0.5 	39.0961 	0.476341 	-2.21865e-19
-0.3125 	-0.984375 	0.5 	39.0873 	0.470227 	4.82023e-19
-0.296875 	-0.984375 	0.5 	39.0786 	0.463463 	7.84999e-19
-0.28125 	-0.984375 	0.5 	39.0703 	0.455839 	6.72018e-19
-0.265625 	-0.984375 	0.5 	39.062 	0.448216 	5.59037e-19
-0.25 	-0.984375 	0.5 	39.0544 	0.440199 	-7.44983e-20
-0.234375 	-0.984375 	0.5 	39.048 	0.432574 	6.78936e-19
-0.21875 	-0.984375 	0.5 	39.041 	0.425624 	9.89176e-19
-0.203125 	-0.984375 	0.5 	39.0326 	0.41992 	5.00919e-19
-0.1875 	-0.984375 	0.5 	39.0246 	0.412605 	2.64188e-19
-0.171875 	-0.984375 	0.5 	39.0161 	0.403088 	2.23163e-19
-0.15625 	-0.984375 	0.5 	39.0084 	0.393618 	-1.07685e-20
-0.140625 	-0.984375 	0.5 	39.001 	0.38891 	-9.96619e-20
-0.125 	-0.984375 	0.5 	38.9937 	0.381083 	5.99605e-20
-0.109375 	-0.984375 	0.5 	38.9867 	0.373149 	-3.47555e-19
-0.09375 	-0.984375 	0.5 	38.9797 	0.364322 	-3.11344e-19
-0.078125 	-0.984375 	0.5 	38.9727 	0.355849 	9.28765e-20
-0.0625 	-0.984375 	0.5 	38.9659 	0.347276 	4.41456e-19
-0.046875 	-0.984375 	0.5 	38.9594 	0.338092 	1.8055e-19
-0.03125 	-0.984375 	0.5 	38.9531 	0.328905 	1.47835e-18
-0.015625 	-0.984375 	0.5 	38.9466 	0.319675 	2.0861e-18
0 	-0.984375 	0.5 	38.9379 	0.309651 	3.07844e-19
0.015625 	-0.984375 	0.5 	38.9299 	0.301435 	2.31065e-19
0.03125 	-0.984375 	0.5 	38.9247 	0.291356 	1.26343e-19
0.046875 	-0.984375 	0.5 	38.9206 	0.280017 	1.78334e-19
0.0625 	-0.984375 	0.5 	38.9148 	0.270745 	3.57515e-19
0.078125 	-0.984375 	0.5 	38.9114 	0.260791 	6.6239e-19
0.09375 	-0.984375 	0.5 	38.9043 	0.251238 	2.18943e-19
0.109375 	-0.984375 	0.5 	38.8979 	0.239953 	1.21249e-19
0.125 	-0.984375 	0.5 	38.8925 	0.228928 	8.07141e-20
0.140625 	-0.984375 	0.5 	38.8879 	0.216771 	2.83259e-20
0.15625 	-0.984375 	0.5 	38.884 	0.205172 	6.40184e-21
0.171875 	-0.984375 	0.5 	38.8801 	0.194324 	-1.8139e-20
0.1875 	-0.984375 	0.5 	38.8753 	0.184716 	-8.70591e-20
0.203125 	-0.984375 	0.5 	38.8714 	0.172987 	-1.06658e-19
0.21875 	-0.984375 	0.5 	38.8667 	0.161973 	1.03086e-19
0.234375 	-0.984375 	0.5 	38.8632 	0.150251 	-1.58533e-20
0.25 	-0.984375 	0.5 	38.8592 	0.138297 	1.85547e-20
0.265625 	-0.984375 	0.5 	38.855 	0.126561 	-4.28192e-20
0.28125 	-0.984375 	0.5 	38.8515 	0.113151 	-1.27231e-20
0.296875 	-0.984375 	0.5 	38.8487 	0.102649 	6.90051e-20
0.3125 	-0.984375 	0.5 	38.8457 	0.0907567 	7.3428e-20
0.328125 	-0.984375 	0.5 	38.8435 	0.0781488 	1.34678e-19
0.34375 	-0.984375 	0.5 	38.8406 	0.0648396 	1.48297e-19
0.359375 	-0.984375 	0.5 	38.8387 	0.0510999 	7.51908e-19
0.375 	-0.984375 	0.5 	38.8364 	0.0392269 	1.77411e-19
0.390625 	-0.984375 	0.5 	38.8345 	0.026481 	4.32147e-20
0.40625 	-0.984375 	0.5 	38.8332 	0.0137862 	4.06511e-20
0.421875 	-0.984375 	0.5 	38.832 	0.0009036 	-1.03693e-19
0.4375 	-0.984375 	0.5 	38.831 	-0.0124584 	-3.17777e-19
0.453125 	-0.984375 	0.5 	38.8311 	-0.026119 	7.69783e-19
0.46875 	-0.984375 	0.5 	38.8309 	-0.0400039 	5.80949e-19
0.484375 	-0.984375 	0.5 	38.83 	-0.0515294 	-5.46885e-20
0.5 	-0.984375 	0.5 	38.8305 	-0.0676332 	-2.16344e-19
0.515625 	-0.984375 	0.5 	38.8305 	-0.0830292 	-8.43519e-20
0.53125 	-0.984375 	0.5 	38.8295 	-0.0968562 	-9.61444e-21
0.546875 	-0.984375 	0.5 	38.8328 	-0.107341 	-7.68078e-20
0.5625 	-0.984375 	0.5 	38.8351 	-0.119444 	-2.07334e-19
0.578125 	-0.984375 	0.5 	38.8367 	-0.133635 	8.78218e-21
0.59375 	-0.984375 	0.5 	38.8373 	-0.147681 	2.46784e-19
0.609375 	-0.984375 	0.5 	38.8399 	-0.16095 	7.56109e-20
0.625 	-0.984375 	0.5 	38.8421 	-0.174547 	-2.51073e-19
0.640625 	-0.984375 	0.5 	38.8439 	-0.188329 	3.47636e-21
0.65625 	-0.984375 	0.5 	38.8486 	-0.201912 	-1.66493e-20
0.671875 	-0.984375 	0.5 	38.852 	-0.215677 	-3.02122e-21
0.6875 	-0.984375 	0.5 	38.8563 	-0.228853 	2.08279e-21
0.703125 	-0.984375 	0.5 	38.8606 	-0.242456 	2.96085e-21
0.71875 	-0.984375 	0.5 	38.8652 	-0.2558 	6.29291e-21
0.734375 	-0.984375 	0.5 	38.87 	-0.269262 	2.74159e-19
0.75 	-0.984375 	0.5 	38.8748 	-0.282324 	9.57617e-20
0.765625 	-0.984375 	0.5 	38.8803 	-0.294778 	4.59637e-22
0.78125 	-0.984375 	0.5 	38.886 	-0.307643 	-4.06586e-20
0.796875 	-0.984375 	0.5 	38.8926 	-0.319721 	-3.5682e-20
0.8125 	-0.984375 	0.5 	38.8994 	-0.331967 	-9.11536e-20
0.828125 	-0.984375 	0.5 	38.9063 	-0.344619 	4.32952e-20
0.84375 	-0.984375 	0.5 	38.9123 	-0.357421 	2.63707e-19
0.859375 	-0.984375 	0.5 	38.9203 	-0.369121 	1.60581e-20
0.875 	-0.984375 	0.5 	38.9284 	-0.381182 	2.30481e-21
0.890625 	-0.984375 	0.5 	38.9353 	-0.393073 	2.61228e-20
0.90625 	-0.984375 	0.5 	38.9431 	-0.402366 	7.93238e-19
0.921875 	-0.984375 	0.5 	38.9517 	-0.41496 	2.49065e-19
0.9375 	-0.984375 	0.5 	38.9598 	-0.42563 	2.66225e-19
0.953125 	-0.984375 	0.5 	38.969 	-0.435879 	2.37025e-19
0.96875 	-0.984375 	0.5 	38.9782 	-0.446193 	1.76306e-19
0.984375 	-0.984375 	0.5 	38.9877 	-0.456906 	5.02121e-19
1 	-0.984375 	0.5 	38.9962 	-0.467417 	6.95032e-19
1.01562 	-0.984375 	0.5 	39.004 	-0.477445 	9.49995e-20
1.03125 	-0.984375 	0.5 	39.0155 	-0.487236 	2.42653e-19
1.04688 	-0.984375 	0.5 	39.0248 	-0.494217 	1.16215e-18
1.0625 	-0.984375 	0.5 	39.0369 	-0.504074 	3.03135e-20
1.07812 	-0.984375 	0.5 	39.0468 	-0.512182 	-4.09937e-20
1.09375 	-0.984375 	0.5 	39.0559 	-0.51959 	9.5355e-21
1.10938 	-0.984375 	0.5 	39.0657 	-0.527083 	2.56313e-20
1.125 	-0.984375 	0.5 	39.0764 	-0.53473 	6.56016e-20
1.14062 	-0.984375 	0.5 	39.088 	-0.542282 	1.16527e-19
1.15625 	-0.984375 	0.5 	39.0986 	-0.549546 	3.3501e-19
1.17188 	-0.984375 	0.5 	39.109 	-0.55754 	1.87577e-19
1.1875 	-0.984375 	0.5 	39.1199 	-0.565817 	1.11284e-19
1.20312 	-0.984375 	0.5 	39.1304 	-0.571302 	3.05391e-19
1.21875 	-0.984375 	0.5 	39.141 	-0.576064 	1.03434e-18
1.23438 	-0.984375 	0.5 	39.1514 	-0.580681 	3.53024e-19
1.25 	-0.984375 	0.5 	39.1633 	-0.585611 	-5.34077e-20
1.26562 	-0.984375 	0.5 	39.1748 	-0.590049 	-2.32898e-19
1.28125 	-0.984375 	0.5 	39.1858 	-0.594264 	-5.41071e-20
1.29688 	-0.984375 	0.5 	39.1967 	-0.598903 	1.47591e-19
1.3125 	-0.984375 	0.5 	39.2073 	-0.604031 	2.15118e-20
1.32812 	-0.984375 	0.5 	39.2185 	-0.60802 	-1.26903e-20
1.34375 	-0.984375 	0.5 	39.2295 	-0.612955 	-7.27077e-21
1.35938 	-0.984375 	0.5 	39.2412 	-0.616097 	7.52963e-20
1.375 	-0.984375 	0.5 	39.2523 	-0.619462 	7.28795e-19
1.39062 	-0.984375 	0.5 	39.2634 	-0.623128 	3.74533e-19
1.40625 	-0.984375 	0.5 	39.2744 	-0.625725 	3.70577e-20
1.42188 	-0.984375 	0.5 	39.2862 	-0.627159 	-6.41457e-20
1.4375 	-0.984375 	0.5 	39.2973 	-0.62863 	-1.34911e-19
1.45312 	-0.984375 	0.5 	39.308 	-0.630075 	-3.07574e-19
1.46875 	-0.984375 	0.5 	39.3188 	-0.63341 	-2.6004e-19
1.48438 	-0.984375 	0.5 	39.3291 	-0.636964 	-8.03286e-20
-0.5 	-0.96875 	0.5 	39.1864 	0.539928 	-1.67513e-19
-0.484375 	-0.96875 	0.5 	39.1781 	0.535188 	1.29923e-19
-0.46875 	-0.96875 	0.5 	39.1703 	0.531058 	8.55037e-20
-0.453125 	-0.96875 	0.5 	39.1622 	0.526884 	-1.21324e-19
-0.4375 	-0.96875 	0.5 	39.1537 	0.522638 	-5.89303e-19
-0.421875 	-0.96875 	0.5 	39.1457 	0.516755 	-4.31628e-20
-0.40625 	-0.96875 	0.5 	39.1358 	0.51183 	-1.3235e-19
-0.390625 	-0.96875 	0.5 	39.1249 	0.507299 	3.40834e-19
-0.375 	-0.96875 	0.5 	39.1142 	0.501027 	2.54346e-19
-0.359375 	-0.96875 	0.5 	39.1053 	0.49449 	-2.23398e-19
-0.34375 	-0.96875 	0.5 	39.0971 	0.489647 	-1.47647e-19
-0.328125 	-0.96875 	0.5 	39.0881 	0.484246 	4.17823e-19
-0.3125 	-0.96875 	0.5 	39.079 	0.479708 	8.15641e-19
-0.296875 	-0.96875 	0.5 	39.0701 	0.471644 	8.35597e-19
-0.28125 	-0.96875 	0.5 	39.059 	0.466983 	2.18007e-18
-0.265625 	-0.96875 	0.5 	39.0532 	0.456803 	8.09819e-19
-0.25 	-0.96875 	0.5 	39.0446 	0.450242 	-1.25924e-18
-0.234375 	-0.96875 	0.5 	39.038 	0.442002 	6.83502e-22
-0.21875 	-0.96875 	0.5 	39.0313 	0.434758 	4.98834e-19
-0.203125 	-0.96875 	0.5 	39.0234 	0.428264 	-2.88394e-20
-0.1875 	-0.96875 	0.5 	39.0153 	0.420344 	-5.65613e-20
-0.171875 	-0.96875 	0.5 	39.006 	0.411553 	1.47888e-19
-0.15625 	-0.96875 	0.5 	38.9984 	0.403584 	-4.03169e-20
-0.140625 	-0.96875 	0.5 	38.991 	0.396391 	6.87801e-20
-0.125 	-0.96875 	0.5 	38.9838 	0.38746 	2.14293e-19
-0.109375 	-0.96875 	0.5 	38.9768 	0.380187 	-2.12813e-19
-0.09375 	-0.96875 	0.5 	38.9699 	0.37076 	-7.97849e-19
-0.078125 	-0.96875 	0.5 	38.9628 	0.362384 	-2.9401e-19
-0.0625 	-0.96875 	0.5 	38.9558 	0.354025 	2.27354e-19
-0.046875 	-0.96875 	0.5 	38.9485 	0.344645 	2.31159e-19
-0.03125 	-0.96875 	0.5 	38.9422 	0.33597 	1.44814e-18
-0.015625 	-0.96875 	0.5 	38.936 	0.327244 	2.72793e-18
0 	-0.96875 	0.5 	38.9277 	0.315873 	3.03852e-19
0.015625 	-0.96875 	0.5 	38.9199 	0.307375 	2.43363e-19
0.03125 	-0.96875 	0.5 	38.9164 	0.299623 	-3.71935e-19
0.046875 	-0.96875 	0.5 	38.9089 	0.287788 	-1.33207e-19
0.0625 	-0.96875 	0.5 	38.9065 	0.276326 	1.31901e-19
0.078125 	-0.96875 	0.5 	38.8999 	0.267553 	2.91469e-19
0.09375 	-0.96875 	0.5 	38.8933 	0.257489 	3.44545e-19
0.109375 	-0.96875 	0.5 	38.8866 	0.245114 	1.30265e-19
0.125 	-0.96875 	0.5 	38.8804 	0.234095 	3.60205e-20
0.140625 	-0.96875 	0.5 	38.8762 	0.223209 	-2.84116e-19
0.15625 	-0.96875 	0.5 	38.8717 	0.209833 	-2.49687e-20
0.171875 	-0.96875 	0.5 	38.8674 	0.199994 	-5.9497e-20
0.1875 	-0.96875 	0.5 	38.8621 	0.18913 	-7.96241e-20
0.203125 	-0.96875 	0.5 	38.8574 	0.17746 	-4.37455e-19
0.21875 	-0.96875 	0.5 	38.8538 	0.166353 	-6.67664e-20
0.234375 	-0.96875 	0.5 	38.8499 	0.153323 	-1.8849e-19
0.25 	-0.96875 	0.5 	38.8452 	0.142106 	-6.15587e-20
0.265625 	-0.96875 	0.5 	38.841 	0.130063 	-9.9435e-20
0.28125 	-0.96875 	0.5 	38.8377 	0.117631 	-4.83726e-20
0.296875 	-0.96875 	0.5 	38.8346 	0.106125 	-1.72259e-19
0.3125 	-0.96875 	0.5 	38.8314 	0.0933509 	1.21363e-19
0.328125 	-0.96875 	0.5 	38.8299 	0.0814105 	3.87479e-19
0.34375 	-0.96875 	0.5 	38.8264 	0.0675605 	2.8383e-19
0.359375 	-0.96875 	0.5 	38.8232 	0.0537719 	1.42509e-19
0.375 	-0.96875 	0.5 	38.8211 	0.0417323 	4.33492e-19
0.390625 	-0.96875 	0.5 	38.8198 	0.0284017 	-7.21781e-20
0.40625 	-0.96875 	0.5 	38.8187 	0.0143469 	-1.6662e-20
0.421875 	-0.96875 	0.5 	38.8173 	0.000716915 	-1.12669e-19
0.4375 	-0.96875 	0.5 	38.8165 	-0.0114874 	-3.22151e-19
0.453125 	-0.96875 	0.5 	38.8158 	-0.0253044 	6.41926e-20
0.46875 	-0.96875 	0.5 	38.8158 	-0.0381461 	6.60175e-20
0.484375 	-0.96875 	0.5 	38.8162 	-0.0514025 	2.53942e-19
0.5 	-0.96875 	0.5 	38.8155 	-0.0648567 	1.33109e-19
0.515625 	-0.96875 	0.5 	38.8152 	-0.0798298 	1.71626e-19
0.53125 	-0.96875 	0.5 	38.8158 	-0.0948029 	2.13868e-20
0.546875 	-0.96875 	0.5 	38.8176 	-0.107762 	2.65106e-19
0.5625 	-0.96875 	0.5 	38.8191 	-0.121215 	-1.92489e-19
0.578125 	-0.96875 	0.5 	38.8197 	-0.135369 	-3.91348e-19
0.59375 	-0.96875 	0.5 	38.8225 	-0.149697 	5.32734e-21
0.609375 	-0.96875 	0.5 	38.8246 	-0.163954 	7.69574e-20
0.625 	-0.96875 	0.5 	38.8269 	-0.177658 	-1.5096e-19
0.640625 	-0.96875 	0.5 	38.829 	-0.191388 	7.05528e-20
0.65625 	-0.96875 	0.5 	38.8329 	-0.205194 	5.95893e-20
0.671875 	-0.96875 	0.5 	38.8368 	-0.21934 	3.80668e-20
0.6875 	-0.96875 	0.5 	38.8409 	-0.233346 	1.47916e-20
0.703125 	-0.96875 	0.5 	38.8451 	-0.247083 	2.71773e-20
0.71875 	-0.96875 	0.5 	38.8497 	-0.260372 	2.08546e-20
0.734375 	-0.96875 	0.5 	38.8552 	-0.274253 	9.10737e-20
0.75 	-0.96875 	0.5 	38.8607 	-0.287846 	1.56527e-19
0.765625 	-0.96875 	0.5 	38.8661 	-0.300711 	1.87617e-19
0.78125 	-0.96875 	0.5 	38.8716 	-0.313615 	-6.83077e-21
0.796875 	-0.96875 	0.5 	38.8785 	-0.326546 	-9.559e-20
0.8125 	-0.96875 	0.5 	38.8852 	-0.338809 	-2.06649e-19
0.828125 	-0.96875 	0.5 	38.8917 	-0.351994 	2.10778e-19
0.84375 	-0.96875 	0.5 	38.8996 	-0.364968 	7.79089e-20
0.859375 	-0.96875 	0.5 	38.9066 	-0.376871 	5.44665e-20
0.875 	-0.96875 	0.5 	38.9149 	-0.389254 	5.17609e-20
0.890625 	-0.96875 	0.5 	38.9237 	-0.402149 	5.92647e-20
0.90625 	-0.96875 	0.5 	38.9313 	-0.414566 	-3.50156e-19
0.921875 	-0.96875 	0.5 	38.9389 	-0.426684 	-7.57994e-19
0.9375 	-0.96875 	0.5 	38.9473 	-0.435204 	-3.04366e-21
0.953125 	-0.96875 	0.5 	38.9562 	-0.44525 	6.51654e-20
0.96875 	-0.96875 	0.5 	38.9661 	-0.457093 	-4.54423e-19
0.984375 	-0.96875 	0.5 	38.9759 	-0.466792 	-1.69599e-19
1 	-0.96875 	0.5 	38.9852 	-0.477168 	6.00694e-19
1.01562 	-0.96875 	0.5 	38.9941 	-0.485583 	-5.05684e-20
1.03125 	-0.96875 	0.5 	39.0059 	-0.494445 	1.14015e-19
1.04688 	-0.96875 	0.5 	39.0165 	-0.505967 	3.59833e-19
1.0625 	-0.96875 	0.5 	39.0251 	-0.514423 	-4.91153e-19
1.07812 	-0.96875 	0.5 	39.0346 	-0.522567 	-7.05625e-19
1.09375 	-0.96875 	0.5 	39.0459 	-0.530304 	-4.64998e-20
1.10938 	-0.96875 	0.5 	39.0559 	-0.537832 	-2.48771e-20
1.125 	-0.96875 	0.5 	39.0679 	-0.545239 	1.25324e-20
1.14062 	-0.96875 	0.5 	39.0795 	-0.553025 	1.10876e-19
1.15625 	-0.96875 	0.5 	39.0901 	-0.560307 	5.16378e-19
1.17188 	-0.96875 	0.5 	39.101 	-0.567056 	7.70418e-19
1.1875 	-0.96875 	0.5 	39.111 	-0.57482 	5.6474e-19
1.20312 	-0.96875 	0.5 	39.121 	-0.582585 	3.59063e-19
1.21875 	-0.96875 	0.5 	39.1324 	-0.588274 	2.82365e-19
1.23438 	-0.96875 	0.5 	39.1456 	-0.593484 	1.21431e-19
1.25 	-0.96875 	0.5 	39.1585 	-0.598578 	-3.25273e-20
1.26562 	-0.96875 	0.5 	39.1688 	-0.602614 	-1.71631e-19
1.28125 	-0.96875 	0.5 	39.1805 	-0.606937 	-4.15005e-19
1.29688 	-0.96875 	0.5 	39.1913 	-0.610984 	-1.35782e-19
1.3125 	-0.96875 	0.5 	39.2025 	-0.615465 	-7.48465e-20
1.32812 	-0.96875 	0.5 	39.213 	-0.620936 	-4.20295e-21
1.34375 	-0.96875 	0.5 	39.2249 	-0.624779 	-1.29934e-19
1.35938 	-0.96875 	0.5 	39.237 	-0.627778 	1.87024e-20
1.375 	-0.96875 	0.5 	39.2481 	-0.630838 	1.03858e-19
1.39062 	-0.96875 	0.5 	39.2593 	-0.63429 	2.63682e-19
1.40625 	-0.96875 	0.5 	39.2705 	-0.636396 	4.00502e-20
1.42188 	-0.96875 	0.5 	39.2823 	-0.637896 	-6.57961e-20
1.4375 	-0.96875 	0.5 	39.2937 	-0.639988 	-3.28758e-19
1.45312 	-0.96875 	0.5 	39.3045 	-0.642709 	7.56389e-21
1.46875 	-0.96875 	0.5 	39.3139 	-0.647548 	4.95223e-19
1.48438 	-0.96875 	0.5 	39.3257 	-0.647961 	4.48965e-20
-0.5 	-0.953125 	0.5 	39.18 	0.548736 	2.8511e-19
-0.484375 	-0.953125 	0.5 	39.1703 	0.543976 	-9.21181e-20
-0.46875 	-0.953125 	0.5 	39.1614 	0.540158 	-1.26856e-18
-0.453125 	-0.953125 	0.5 	39.1527 	0.536086 	-2.02418e-18
-0.4375 	-0.953125 	0.5 	39.1454 	0.530637 	-5.03874e-19
-0.421875 	-0.953125 	0.5 	39.137 	0.52308 	2.16988e-20
-0.40625 	-0.953125 	0.5 	39.1276 	0.516135 	-4.83275e-20
-0.390625 	-0.953125 	0.5 	39.1176 	0.511976 	-1.44786e-19
-0.375 	-0.953125 	0.5 	39.1076 	0.507817 	-2.41245e-19
-0.359375 	-0.953125 	0.5 	39.0979 	0.503453 	-1.70576e-19
-0.34375 	-0.953125 	0.5 	39.0888 	0.498915 	2.27242e-19
-0.328125 	-0.953125 	0.5 	39.0797 	0.494378 	6.2506e-19
-0.3125 	-0.953125 	0.5 	39.0709 	0.488585 	8.22937e-19
-0.296875 	-0.953125 	0.5 	39.0626 	0.47921 	4.50224e-19
-0.28125 	-0.953125 	0.5 	39.0514 	0.474245 	1.77888e-18
-0.265625 	-0.953125 	0.5 	39.0461 	0.463561 	-2.21572e-19
-0.25 	-0.953125 	0.5 	39.0349 	0.460219 	-2.3969e-18
-0.234375 	-0.953125 	0.5 	39.0282 	0.451997 	-1.14367e-18
-0.21875 	-0.953125 	0.5 	39.0213 	0.443855 	-1.45103e-19
-0.203125 	-0.953125 	0.5 	39.0131 	0.435918 	-1.29839e-19
-0.1875 	-0.953125 	0.5 	39.0049 	0.427982 	-1.14575e-19
-0.171875 	-0.953125 	0.5 	38.9959 	0.419983 	6.10494e-20
-0.15625 	-0.953125 	0.5 	38.9884 	0.411699 	7.75998e-20
-0.140625 	-0.953125 	0.5 	38.9811 	0.402739 	2.31065e-19
-0.125 	-0.953125 	0.5 	38.974 	0.394155 	2.82343e-19
-0.109375 	-0.953125 	0.5 	38.9669 	0.387115 	-8.61435e-20
-0.09375 	-0.953125 	0.5 	38.9599 	0.37811 	-3.40618e-19
-0.078125 	-0.953125 	0.5 	38.9528 	0.369652 	1.03041e-19
-0.0625 	-0.953125 	0.5 	38.9453 	0.360678 	8.75319e-20
-0.046875 	-0.953125 	0.5 	38.9379 	0.350107 	-2.76655e-19
-0.03125 	-0.953125 	0.5 	38.9311 	0.340499 	-1.97779e-19
-0.015625 	-0.953125 	0.5 	38.9238 	0.332448 	2.3617e-19
0 	-0.953125 	0.5 	38.9173 	0.323297 	9.28741e-19
0.015625 	-0.953125 	0.5 	38.9104 	0.314031 	9.83336e-20
0.03125 	-0.953125 	0.5 	38.9049 	0.304431 	-1.3498e-19
0.046875 	-0.953125 	0.5 	38.8985 	0.294839 	-5.38813e-19
0.0625 	-0.953125 	0.5 	38.8905 	0.284335 	2.92259e-19
0.078125 	-0.953125 	0.5 	38.8862 	0.273535 	4.9476e-19
0.09375 	-0.953125 	0.5 	38.8797 	0.262218 	3.92141e-19
0.109375 	-0.953125 	0.5 	38.8747 	0.250694 	1.17778e-19
0.125 	-0.953125 	0.5 	38.8688 	0.239886 	-2.696e-20
0.140625 	-0.953125 	0.5 	38.8648 	0.228949 	-5.01174e-19
0.15625 	-0.953125 	0.5 	38.8598 	0.216829 	2.05589e-19
0.171875 	-0.953125 	0.5 	38.8541 	0.205803 	-2.15123e-19
0.1875 	-0.953125 	0.5 	38.8487 	0.19473 	-1.84299e-19
0.203125 	-0.953125 	0.5 	38.844 	0.1828 	-9.00381e-20
0.21875 	-0.953125 	0.5 	38.8406 	0.170052 	-2.36902e-20
0.234375 	-0.953125 	0.5 	38.8366 	0.1573 	-1.64396e-19
0.25 	-0.953125 	0.5 	38.8318 	0.146051 	-1.03304e-19
0.265625 	-0.953125 	0.5 	38.8271 	0.133972 	-1.07196e-19
0.28125 	-0.953125 	0.5 	38.8234 	0.121606 	-7.1399e-19
0.296875 	-0.953125 	0.5 	38.82 	0.109286 	-1.90392e-19
0.3125 	-0.953125 	0.5 	38.8181 	0.0964714 	5.79791e-19
0.328125 	-0.953125 	0.5 	38.8147 	0.0836832 	2.38699e-19
0.34375 	-0.953125 	0.5 	38.8113 	0.0696168 	-2.6287e-19
0.359375 	-0.953125 	0.5 	38.8095 	0.056166 	-1.29031e-18
0.375 	-0.953125 	0.5 	38.8063 	0.0429109 	-9.92494e-20
0.390625 	-0.953125 	0.5 	38.805 	0.0302285 	-1.94914e-19
0.40625 	-0.953125 	0.5 	38.8037 	0.0153876 	-2.00878e-19
0.421875 	-0.953125 	0.5 	38.8023 	0.00151967 	-7.14857e-20
0.4375 	-0.953125 	0.5 	38.8007 	-0.0122625 	-4.88213e-20
0.453125 	-0.953125 	0.5 	38.7996 	-0.025363 	2.46629e-20
0.46875 	-0.953125 	0.5 	38.7978 	-0.0401183 	-9.49723e-19
0.484375 	-0.953125 	0.5 	38.8002 	-0.0514468 	1.31101e-19
0.5 	-0.953125 	0.5 	38.8 	-0.0655086 	1.41006e-19
0.515625 	-0.953125 	0.5 	38.7993 	-0.0805233 	1.55286e-20
0.53125 	-0.953125 	0.5 	38.801 	-0.0975647 	-3.05658e-19
0.546875 	-0.953125 	0.5 	38.8019 	-0.109259 	3.283e-20
0.5625 	-0.953125 	0.5 	38.8032 	-0.122986 	-1.77644e-19
0.578125 	-0.953125 	0.5 	38.805 	-0.137326 	6.52898e-20
0.59375 	-0.953125 	0.5 	38.8063 	-0.152047 	5.24841e-19
0.609375 	-0.953125 	0.5 	38.8083 	-0.165981 	4.53207e-20
0.625 	-0.953125 	0.5 	38.8106 	-0.18017 	9.63355e-20
0.640625 	-0.953125 	0.5 	38.8134 	-0.194697 	9.31044e-20
0.65625 	-0.953125 	0.5 	38.8176 	-0.209059 	1.16364e-19
0.671875 	-0.953125 	0.5 	38.8212 	-0.22326 	4.07579e-20
0.6875 	-0.953125 	0.5 	38.8254 	-0.237259 	-7.30593e-20
0.703125 	-0.953125 	0.5 	38.8298 	-0.251182 	5.12956e-20
0.71875 	-0.953125 	0.5 	38.8347 	-0.265144 	4.47022e-20
0.734375 	-0.953125 	0.5 	38.84 	-0.27907 	3.04529e-20
0.75 	-0.953125 	0.5 	38.8454 	-0.293208 	6.8457e-20
0.765625 	-0.953125 	0.5 	38.8515 	-0.306879 	6.94658e-20
0.78125 	-0.953125 	0.5 	38.8571 	-0.319816 	-5.80253e-20
0.796875 	-0.953125 	0.5 	38.8641 	-0.33299 	-2.27681e-19
0.8125 	-0.953125 	0.5 	38.8712 	-0.345602 	-1.60563e-19
0.828125 	-0.953125 	0.5 	38.8784 	-0.358715 	-5.33735e-20
0.84375 	-0.953125 	0.5 	38.8855 	-0.371731 	3.63051e-20
0.859375 	-0.953125 	0.5 	38.8932 	-0.385349 	8.02742e-20
0.875 	-0.953125 	0.5 	38.9021 	-0.398351 	2.19689e-20
0.890625 	-0.953125 	0.5 	38.9095 	-0.410123 	3.57182e-20
0.90625 	-0.953125 	0.5 	38.9175 	-0.422696 	-2.49038e-20
0.921875 	-0.953125 	0.5 	38.927 	-0.433709 	-2.14869e-19
0.9375 	-0.953125 	0.5 	38.9349 	-0.444988 	-3.62283e-19
0.953125 	-0.953125 	0.5 	38.9442 	-0.455663 	-4.68744e-19
0.96875 	-0.953125 	0.5 	38.9539 	-0.467328 	-8.34017e-19
0.984375 	-0.953125 	0.5 	38.9638 	-0.47776 	-7.91636e-19
1 	-0.953125 	0.5 	38.9736 	-0.486543 	-1.12002e-19
1.01562 	-0.953125 	0.5 	38.9838 	-0.495668 	-1.27659e-19
1.03125 	-0.953125 	0.5 	38.9946 	-0.506638 	-1.22703e-19
1.04688 	-0.953125 	0.5 	39.0057 	-0.516443 	1.43778e-19
1.0625 	-0.953125 	0.5 	39.0143 	-0.52349 	1.0833e-18
1.07812 	-0.953125 	0.5 	39.0247 	-0.531925 	6.78092e-19
1.09375 	-0.953125 	0.5 	39.0352 	-0.540576 	9.21756e-20
1.10938 	-0.953125 	0.5 	39.047 	-0.548626 	-3.58177e-20
1.125 	-0.953125 	0.5 	39.059 	-0.556142 	2.75805e-20
1.14062 	-0.953125 	0.5 	39.0709 	-0.563768 	1.05224e-19
1.15625 	-0.953125 	0.5 	39.0812 	-0.571685 	4.19088e-19
1.17188 	-0.953125 	0.5 	39.092 	-0.57852 	6.34185e-19
1.1875 	-0.953125 	0.5 	39.1019 	-0.586402 	3.75383e-19
1.20312 	-0.953125 	0.5 	39.1136 	-0.593567 	2.34423e-19
1.21875 	-0.953125 	0.5 	39.1257 	-0.600149 	2.29227e-19
1.23438 	-0.953125 	0.5 	39.1382 	-0.605454 	2.02183e-19
1.25 	-0.953125 	0.5 	39.1517 	-0.610785 	3.3987e-20
1.26562 	-0.953125 	0.5 	39.1628 	-0.615196 	-7.8893e-20
1.28125 	-0.953125 	0.5 	39.1742 	-0.619444 	-2.42927e-19
1.29688 	-0.953125 	0.5 	39.1852 	-0.623934 	-1.69644e-19
1.3125 	-0.953125 	0.5 	39.197 	-0.628171 	-2.50977e-19
1.32812 	-0.953125 	0.5 	39.2087 	-0.632304 	-1.84152e-19
1.34375 	-0.953125 	0.5 	39.2203 	-0.636494 	-1.97924e-19
1.35938 	-0.953125 	0.5 	39.2321 	-0.639511 	-6.86138e-20
1.375 	-0.953125 	0.5 	39.2434 	-0.642557 	3.05206e-20
1.39062 	-0.953125 	0.5 	39.2552 	-0.645669 	1.60574e-19
1.40625 	-0.953125 	0.5 	39.2659 	-0.648047 	-4.62419e-19
1.42188 	-0.953125 	0.5 	39.2767 	-0.650287 	-1.08713e-18
1.4375 	-0.953125 	0.5 	39.2904 	-0.652581 	-1.33929e-19
1.45312 	-0.953125 	0.5 	39.2992 	-0.653761 	-4.98056e-20
1.46875 	-0.953125 	0.5 	39.312 	-0.655472 	-5.08468e-20
1.48438 	-0.953125 	0.5 	39.3225 	-0.658694 	1.14247e-19
-0.5 	-0.9375 	0.5 	39.1739 	0.557752 	5.45957e-19
-0.484375 	-0.9375 	0.5 	39.1639 	0.553519 	1.70931e-18
-0.46875 	-0.9375 	0.5 	39.1539 	0.547323 	2.34916e-19
-0.453125 	-0.9375 	0.5 	39.145 	0.543484 	-9.44178e-19
-0.4375 	-0.9375 	0.5 	39.1373 	0.538187 	1.39131e-19
-0.421875 	-0.9375 	0.5 	39.1282 	0.530209 	7.89204e-20
-0.40625 	-0.9375 	0.5 	39.118 	0.526652 	-2.32607e-20
-0.390625 	-0.9375 	0.5 	39.1087 	0.521219 	-3.30658e-19
-0.375 	-0.9375 	0.5 	39.0999 	0.516867 	-3.73109e-19
-0.359375 	-0.9375 	0.5 	39.09 	0.512215 	-2.87146e-19
-0.34375 	-0.9375 	0.5 	39.082 	0.504001 	-8.03973e-19
-0.328125 	-0.9375 	0.5 	39.0726 	0.497903 	-2.57127e-19
-0.3125 	-0.9375 	0.5 	39.0634 	0.49331 	1.68826e-19
-0.296875 	-0.9375 	0.5 	39.0545 	0.487589 	3.78201e-19
-0.28125 	-0.9375 	0.5 	39.0447 	0.480547 	9.05234e-19
-0.265625 	-0.9375 	0.5 	39.0364 	0.473512 	-1.34098e-18
-0.25 	-0.9375 	0.5 	39.0296 	0.465512 	-2.43427e-19
-0.234375 	-0.9375 	0.5 	39.0196 	0.46106 	2.70844e-19
-0.21875 	-0.9375 	0.5 	39.011 	0.451672 	-4.51311e-20
-0.203125 	-0.9375 	0.5 	39.0045 	0.44296 	2.63932e-19
-0.1875 	-0.9375 	0.5 	38.9948 	0.435479 	9.97575e-20
-0.171875 	-0.9375 	0.5 	38.986 	0.427643 	-3.29633e-20
-0.15625 	-0.9375 	0.5 	38.9789 	0.419868 	-1.68217e-19
-0.140625 	-0.9375 	0.5 	38.9715 	0.411001 	-9.30478e-20
-0.125 	-0.9375 	0.5 	38.9642 	0.402237 	-2.66311e-20
-0.109375 	-0.9375 	0.5 	38.957 	0.393689 	1.4583e-20
-0.09375 	-0.9375 	0.5 	38.9499 	0.385278 	-2.12718e-20
-0.078125 	-0.9375 	0.5 	38.9425 	0.37627 	-1.17793e-20
-0.0625 	-0.9375 	0.5 	38.9345 	0.367395 	-9.75838e-20
-0.046875 	-0.9375 	0.5 	38.927 	0.357136 	-4.27441e-19
-0.03125 	-0.9375 	0.5 	38.9206 	0.345828 	-7.35852e-19
-0.015625 	-0.9375 	0.5 	38.9133 	0.337739 	-3.10544e-19
0 	-0.9375 	0.5 	38.906 	0.329651 	1.14765e-19
0.015625 	-0.9375 	0.5 	38.8999 	0.319148 	2.27012e-19