-0.5 	-1 	0.5 	39.3758 	0.385723 	1.81664e-20
-0.484375 	-1 	0.5 	39.3699 	0.381995 	-2.77452e-20
-0.46875 	-1 	0.5 	39.3638 	0.378214 	-7.17289e-20
-0.453125 	-1 	0.5 	39.3577 	0.374585 	-4.45542e-20
-0.4375 	-1 	0.5 	39.3516 	0.370975 	-1.57595e-20
-0.421875 	-1 	0.5 	39.3454 	0.367365 	1.30352e-20
-0.40625 	-1 	0.5 	39.3392 	0.363148 	1.0633e-20
-0.390625 	-1 	0.5 	39.3342 	0.359183 	-2.85662e-19
-0.375 	-1 	0.5 	39.3289 	0.355438 	-1.68722e-19
-0.359375 	-1 	0.5 	39.3235 	0.351692 	-5.17815e-20
-0.34375 	-1 	0.5 	39.3179 	0.347743 	1.12971e-19
-0.328125 	-1 	0.5 	39.3124 	0.341842 	4.70433e-20
-0.3125 	-1 	0.5 	39.3067 	0.33619 	3.2082e-21
-0.296875 	-1 	0.5 	39.3011 	0.331106 	3.20496e-20
-0.28125 	-1 	0.5 	39.2952 	0.327329 	1.31155e-19
-0.265625 	-1 	0.5 	39.2893 	0.323534 	2.20622e-19
-0.25 	-1 	0.5 	39.2839 	0.319327 	7.76076e-20
-0.234375 	-1 	0.5 	39.2793 	0.314411 	5.35242e-19
-0.21875 	-1 	0.5 	39.2739 	0.309035 	5.30201e-19
-0.203125 	-1 	0.5 	39.2684 	0.303494 	1.69989e-19
-0.1875 	-1 	0.5 	39.2635 	0.29799 	-1.27867e-19
-0.171875 	-1 	0.5 	39.2593 	0.292518 	-1.96333e-19
-0.15625 	-1 	0.5 	39.255 	0.287045 	-2.64798e-19
-0.140625 	-1 	0.5 	39.2505 	0.281072 	-1.13609e-19
-0.125 	-1 	0.5 	39.245 	0.275356 	3.58125e-19
-0.109375 	-1 	0.5 	39.2396 	0.269507 	6.34542e-19
-0.09375 	-1 	0.5 	39.2349 	0.264158 	1.27765e-19
-0.078125 	-1 	0.5 	39.2305 	0.258296 	1.35353e-19
-0.0625 	-1 	0.5 	39.2259 	0.252266 	2.96173e-19
-0.046875 	-1 	0.5 	39.2211 	0.246355 	3.08345e-19
-0.03125 	-1 	0.5 	39.2166 	0.23962 	7.40564e-20
-0.015625 	-1 	0.5 	39.2121 	0.233341 	1.90974e-20
0 	-1 	0.5 	39.2076 	0.226955 	3.15019e-19
0.015625 	-1 	0.5 	39.203 	0.22077 	-4.35635e-19
0.03125 	-1 	0.5 	39.1986 	0.214538 	2.12802e-19
0.046875 	-1 	0.5 	39.1945 	0.207654 	2.38199e-19
0.0625 	-1 	0.5 	39.1905 	0.20047 	-4.94685e-19
0.078125 	-1 	0.5 	39.1869 	0.193989 	-3.03846e-19
0.09375 	-1 	0.5 	39.1829 	0.187217 	1.44508e-20
0.109375 	-1 	0.5 	39.1789 	0.180616 	1.42424e-19
0.125 	-1 	0.5 	39.1752 	0.172662 	3.08897e-20
0.140625 	-1 	0.5 	39.1712 	0.165634 	-1.12539e-19
0.15625 	-1 	0.5 	39.1674 	0.158291 	-5.54421e-20
0.171875 	-1 	0.5 	39.164 	0.151021 	-1.20517e-19
0.1875 	-1 	0.5 	39.1606 	0.143561 	-1.99743e-19
0.203125 	-1 	0.5 	39.1572 	0.135382 	-2.20469e-19
0.21875 	-1 	0.5 	39.1544 	0.127735 	1.12872e-19
0.234375 	-1 	0.5 	39.1506 	0.120103 	2.5531e-19
0.25 	-1 	0.5 	39.1478 	0.111675 	5.90778e-20
0.265625 	-1 	0.5 	39.1447 	0.103231 	-9.14079e-21
0.28125 	-1 	0.5 	39.1432 	0.0940402 	-9.25668e-20
0.296875 	-1 	0.5 	39.1398 	0.0861244 	-1.50846e-19
0.3125 	-1 	0.5 	39.1365 	0.0780915 	-2.18377e-19
0.328125 	-1 	0.5 	39.1345 	0.0687713 	8.29905e-20
0.34375 	-1 	0.5 	39.1323 	0.059546 	1.85117e-19
0.359375 	-1 	0.5 	39.1303 	0.050582 	2.29477e-20
0.375 	-1 	0.5 	39.1283 	0.0417247 	2.02255e-20
0.390625 	-1 	0.5 	39.1267 	0.032442 	1.04242e-19
0.40625 	-1 	0.5 	39.1249 	0.0230369 	-2.36535e-20
0.421875 	-1 	0.5 	39.123 	0.0137803 	5.73102e-20
0.4375 	-1 	0.5 	39.1215 	0.00461138 	9.64817e-20
0.453125 	-1 	0.5 	39.1215 	-0.00411772 	9.21839e-19
0.46875 	-1 	0.5 	39.1206 	-0.0153797 	2.16252e-19
0.484375 	-1 	0.5 	39.1201 	-0.0246501 	1.68885e-19
0.5 	-1 	0.5 	39.1196 	-0.0342973 	1.54681e-19
0.515625 	-1 	0.5 	39.1189 	-0.0451043 	-5.35929e-20
0.53125 	-1 	0.5 	39.1189 	-0.0548772 	-4.51103e-20
0.546875 	-1 	0.5 	39.1192 	-0.0643325 	-6.75262e-20
0.5625 	-1 	0.5 	39.12 	-0.0741007 	-1.14295e-19
0.578125 	-1 	0.5 	39.1209 	-0.0839886 	-2.17281e-19
0.59375 	-1 	0.5 	39.1218 	-0.0938766 	-3.20268e-19
0.609375 	-1 	0.5 	39.1235 	-0.103673 	-5.2463e-20
0.625 	-1 	0.5 	39.1245 	-0.113838 	5.28146e-19
0.640625 	-1 	0.5 	39.1259 	-0.123484 	4.12851e-19
0.65625 	-1 	0.5 	39.1275 	-0.134289 	6.61807e-19
0.671875 	-1 	0.5 	39.1295 	-0.144175 	4.63551e-19
0.6875 	-1 	0.5 	39.1318 	-0.153442 	-6.30048e-20
0.703125 	-1 	0.5 	39.1345 	-0.162994 	-1.38766e-19
0.71875 	-1 	0.5 	39.1374 	-0.172477 	-1.48567e-19
0.734375 	-1 	0.5 	39.1407 	-0.182164 	-7.8435e-20
0.75 	-1 	0.5 	39.1436 	-0.19211 	-9.93098e-20
0.765625 	-1 	0.5 	39.1467 	-0.201834 	-2.07681e-19
0.78125 	-1 	0.5 	39.1499 	-0.210994 	-3.80539e-19
0.796875 	-1 	0.5 	39.1555 	-0.220461 	-5.84539e-19
0.8125 	-1 	0.5 	39.1591 	-0.229324 	5.05989e-19
0.828125 	-1 	0.5 	39.1629 	-0.238376 	9.31688e-20
0.84375 	-1 	0.5 	39.1673 	-0.249372 	3.75832e-20
0.859375 	-1 	0.5 	39.1715 	-0.258152 	-2.64818e-19
0.875 	-1 	0.5 	39.1769 	-0.265981 	1.06278e-19
0.890625 	-1 	0.5 	39.1836 	-0.275608 	1.91064e-19
0.90625 	-1 	0.5 	39.1893 	-0.283931 	-4.96941e-19
0.921875 	-1 	0.5 	39.1949 	-0.291461 	-1.4252e-19
0.9375 	-1 	0.5 	39.1998 	-0.298971 	-8.80922e-20
0.953125 	-1 	0.5 	39.206 	-0.308444 	8.79194e-20
0.96875 	-1 	0.5 	39.2118 	-0.3171 	5.13863e-21
0.984375 	-1 	0.5 	39.2182 	-0.323755 	7.93436e-21
1 	-1 	0.5 	39.2251 	-0.330303 	-1.17049e-19
1.01562 	-1 	0.5 	39.232 	-0.337735 	-4.28088e-20
1.03125 	-1 	0.5 	39.2379 	-0.34648 	3.1685e-19
1.04688 	-1 	0.5 	39.2436 	-0.353662 	-1.23727e-20
1.0625 	-1 	0.5 	39.2507 	-0.360436 	-7.15455e-20
1.07812 	-1 	0.5 	39.2581 	-0.366889 	-1.92101e-19
1.09375 	-1 	0.5 	39.2653 	-0.372696 	-2.41226e-19
1.10938 	-1 	0.5 	39.2728 	-0.378247 	-3.26445e-19
1.125 	-1 	0.5 	39.2795 	-0.384044 	-4.55548e-20
1.14062 	-1 	0.5 	39.287 	-0.390253 	1.18067e-18
1.15625 	-1 	0.5 	39.2944 	-0.396769 	-1.51492e-19
1.17188 	-1 	0.5 	39.3017 	-0.40253 	-4.59271e-19
1.1875 	-1 	0.5 	39.3102 	-0.405874 	7.47987e-19
1.20312 	-1 	0.5 	39.3184 	-0.412238 	4.20731e-19
1.21875 	-1 	0.5 	39.3258 	-0.415784 	-2.1239e-19
1.23438 	-1 	0.5 	39.3338 	-0.422647 	-1.57183e-19
1.25 	-1 	0.5 	39.3415 	-0.427579 	2.24923e-19
1.26562 	-1 	0.5 	39.3498 	-0.431868 	-4.19238e-19
1.28125 	-1 	0.5 	39.358 	-0.436294 	-2.22009e-19
1.29688 	-1 	0.5 	39.366 	-0.440388 	-1.70755e-19
1.3125 	-1 	0.5 	39.3733 	-0.443374 	-9.4146e-19
1.32812 	-1 	0.5 	39.3806 	-0.446397 	-1.44778e-18
1.34375 	-1 	0.5 	39.3886 	-0.44969 	7.01281e-20
1.35938 	-1 	0.5 	39.397 	-0.452915 	1.87305e-19
1.375 	-1 	0.5 	39.4045 	-0.455806 	-1.87457e-19
1.39062 	-1 	0.5 	39.4121 	-0.45884 	-2.66678e-19
1.40625 	-1 	0.5 	39.421 	-0.459268 	5.73073e-19
1.42188 	-1 	0.5 	39.4289 	-0.462471 	2.47805e-19
1.4375 	-1 	0.5 	39.4355 	-0.467302 	-8.30105e-20
1.45312 	-1 	0.5 	39.4426 	-0.469652 	-9.17665e-21
1.46875 	-1 	0.5 	39.4505 	-0.47119 	-4.77361e-21
1.48438 	-1 	0.5 	39.4577 	-0.473626 	-9.36822e-20
-0.5 	-0.984375 	0.5 	39.3714 	0.391508 	2.3099e-20
-0.484375 	-0.984375 	0.5 	39.3655 	0.387945 	-2.62982e-20
-0.46875 	-0.984375 	0.5 	39.3591 	0.384192 	-1.59867e-19
-0.453125 	-0.984375 	0.5 	39.3529 	0.380929 	-2.35526e-20
-0.4375 	-0.984375 	0.5 	39.3472 	0.377824 	2.83213e-21
-0.421875 	-0.984375 	0.5 	39.3404 	0.373474 	3.51558e-20
-0.40625 	-0.984375 	0.5 	39.3353 	0.369558 	5.20296e-19
-0.390625 	-0.984375 	0.5 	39.3289 	0.365036 	-1.79733e-19
-0.375 	-0.984375 	0.5 	39.3242 	0.360955 	-6.95866e-19
-0.359375 	-0.984375 	0.5 	39.3182 	0.357515 	-1.88287e-21
-0.34375 	-0.984375 	0.5 	39.3121 	0.352583 	3.82683e-20
-0.328125 	-0.984375 	0.5 	39.3055 	0.349092 	2.70957e-19
-0.3125 	-0.984375 	0.5 	39.3006 	0.342281 	8.62209e-20
-0.296875 	-0.984375 	0.5 	39.2948 	0.336194 	-6.54089e-19
-0.28125 	-0.984375 	0.5 	39.289 	0.332146 	-4.29961e-19
-0.265625 	-0.984375 	0.5 	39.2833 	0.328207 	-7.54997e-20
-0.25 	-0.984375 	0.5 	39.2778 	0.323954 	8.12938e-20
-0.234375 	-0.984375 	0.5 	39.2724 	0.318457 	-2.44851e-19
-0.21875 	-0.984375 	0.5 	39.267 	0.312971 	-5.61573e-19
-0.203125 	-0.984375 	0.5 	39.261 	0.30866 	-1.89311e-19
-0.1875 	-0.984375 	0.5 	39.2561 	0.303054 	-5.72312e-20
-0.171875 	-0.984375 	0.5 	39.2507 	0.296794 	4.60525e-19
-0.15625 	-0.984375 	0.5 	39.2472 	0.29163 	7.92458e-20
-0.140625 	-0.984375 	0.5 	39.2431 	0.286163 	-1.01736e-19
-0.125 	-0.984375 	0.5 	39.2379 	0.28024 	-4.11108e-19
-0.109375 	-0.984375 	0.5 	39.2332 	0.274214 	1.51845e-19
-0.09375 	-0.984375 	0.5 	39.2281 	0.268505 	2.22117e-19
-0.078125 	-0.984375 	0.5 	39.2234 	0.262711 	4.69224e-19
-0.0625 	-0.984375 	0.5 	39.2185 	0.257024 	6.56176e-19
-0.046875 	-0.984375 	0.5 	39.2135 	0.251018 	3.08078e-19
-0.03125 	-0.984375 	0.5 	39.2092 	0.244513 	3.49415e-19
-0.015625 	-0.984375 	0.5 	39.2047 	0.237659 	-5.55346e-21
0 	-0.984375 	0.5 	39.2 	0.231199 	-1.32175e-19
0.015625 	-0.984375 	0.5 	39.1952 	0.224924 	-5.39891e-19
0.03125 	-0.984375 	0.5 	39.191 	0.218691 	3.81692e-19
0.046875 	-0.984375 	0.5 	39.1868 	0.211775 	2.92525e-19
0.0625 	-0.984375 	0.5 	39.1826 	0.204722 	-3.63731e-19
0.078125 	-0.984375 	0.5 	39.1783 	0.19802 	-1.59144e-19
0.09375 	-0.984375 	0.5 	39.1741 	0.191514 	5.61686e-21
0.109375 	-0.984375 	0.5 	39.1703 	0.184846 	7.37242e-20
0.125 	-0.984375 	0.5 	39.1663 	0.176797 	-4.60329e-20
0.140625 	-0.984375 	0.5 	39.1626 	0.169148 	-6.07556e-20
0.15625 	-0.984375 	0.5 	39.1588 	0.161902 	-1.15922e-20
0.171875 	-0.984375 	0.5 	39.155 	0.154557 	-4.40043e-20
0.1875 	-0.984375 	0.5 	39.1514 	0.146684 	-8.93519e-21
0.203125 	-0.984375 	0.5 	39.1482 	0.139022 	-1.16032e-19
0.21875 	-0.984375 	0.5 	39.1449 	0.130854 	1.87543e-19
0.234375 	-0.984375 	0.5 	39.1429 	0.122822 	1.44915e-19
0.25 	-0.984375 	0.5 	39.1394 	0.114288 	-1.71628e-19
0.265625 	-0.984375 	0.5 	39.1355 	0.105624 	-1.3921e-19
0.28125 	-0.984375 	0.5 	39.1329 	0.0964337 	-2.47534e-19
0.296875 	-0.984375 	0.5 	39.1297 	0.0891736 	-9.97213e-20
0.3125 	-0.984375 	0.5 	39.1265 	0.080825 	-8.53568e-20
0.328125 	-0.984375 	0.5 	39.1243 	0.0713911 	9.48276e-20
0.34375 	-0.984375 	0.5 	39.1222 	0.0620494 	2.53332e-19
0.359375 	-0.984375 	0.5 	39.1201 	0.0530479 	3.36613e-20
0.375 	-0.984375 	0.5 	39.1177 	0.0436327 	-6.16107e-20
0.390625 	-0.984375 	0.5 	39.1167 	0.0348246 	9.29692e-20
0.40625 	-0.984375 	0.5 	39.115 	0.0255336 	4.63236e-20
0.421875 	-0.984375 	0.5 	39.1127 	0.0157235 	-1.89335e-20
0.4375 	-0.984375 	0.5 	39.1105 	0.00684001 	1.611e-19
0.453125 	-0.984375 	0.5 	39.1101 	-0.00373335 	2.17959e-19
0.46875 	-0.984375 	0.5 	39.1098 	-0.0141807 	2.58115e-19
0.484375 	-0.984375 	0.5 	39.1092 	-0.0248101 	1.1869e-19
0.5 	-0.984375 	0.5 	39.1087 	-0.0340622 	1.76882e-19
0.515625 	-0.984375 	0.5 	39.1081 	-0.0441755 	3.79266e-20
0.53125 	-0.984375 	0.5 	39.1082 	-0.0538987 	1.96592e-20
0.546875 	-0.984375 	0.5 	39.108 	-0.0639517 	-1.79249e-20
0.5625 	-0.984375 	0.5 	39.1085 	-0.0752603 	3.72801e-19
0.578125 	-0.984375 	0.5 	39.1087 	-0.0852246 	-3.24081e-19
0.59375 	-0.984375 	0.5 	39.1096 	-0.0951186 	-4.20988e-19
0.609375 	-0.984375 	0.5 	39.1107 	-0.105732 	-3.34026e-20
0.625 	-0.984375 	0.5 	39.1125 	-0.114909 	4.38044e-20
0.640625 	-0.984375 	0.5 	39.115 	-0.123315 	1.93503e-19
0.65625 	-0.984375 	0.5 	39.1165 	-0.133556 	3.49906e-19
0.671875 	-0.984375 	0.5 	39.1184 	-0.144076 	-1.12691e-19
0.6875 	-0.984375 	0.5 	39.1206 	-0.155555 	-1.60911e-19
0.703125 	-0.984375 	0.5 	39.123 	-0.165491 	-4.92334e-20
0.71875 	-0.984375 	0.5 	39.1257 	-0.175282 	-1.15426e-19
0.734375 	-0.984375 	0.5 	39.129 	-0.185103 	1.01975e-20
0.75 	-0.984375 	0.5 	39.1314 	-0.195172 	1.16384e-19
0.765625 	-0.984375 	0.5 	39.1344 	-0.204968 	-9.99226e-20
0.78125 	-0.984375 	0.5 	39.1384 	-0.21476 	-1.54102e-19
0.796875 	-0.984375 	0.5 	39.1435 	-0.22421 	-8.66065e-20
0.8125 	-0.984375 	0.5 	39.1485 	-0.23366 	-1.91107e-20
0.828125 	-0.984375 	0.5 	39.1528 	-0.243283 	-1.22079e-20
0.84375 	-0.984375 	0.5 	39.157 	-0.252916 	-1.26149e-20
0.859375 	-0.984375 	0.5 	39.1616 	-0.262765 	-3.74734e-20
0.875 	-0.984375 	0.5 	39.1666 	-0.269791 	2.06961e-19
0.890625 	-0.984375 	0.5 	39.1733 	-0.281059 	4.7804e-19
0.90625 	-0.984375 	0.5 	39.1807 	-0.289467 	2.09602e-19
0.921875 	-0.984375 	0.5 	39.1869 	-0.297294 	-8.3468e-20
0.9375 	-0.984375 	0.5 	39.1917 	-0.306704 	2.49253e-19
0.953125 	-0.984375 	0.5 	39.1968 	-0.315833 	3.72534e-19
0.96875 	-0.984375 	0.5 	39.2038 	-0.323216 	-6.21993e-20
0.984375 	-0.984375 	0.5 	39.2105 	-0.330004 	-1.14632e-19
1 	-0.984375 	0.5 	39.2171 	-0.339785 	-3.64195e-19
1.01562 	-0.984375 	0.5 	39.2237 	-0.346562 	-3.04493e-19
1.03125 	-0.984375 	0.5 	39.2301 	-0.353271 	1.26582e-19
1.04688 	-0.984375 	0.5 	39.2363 	-0.360437 	-7.88805e-20
1.0625 	-0.984375 	0.5 	39.2437 	-0.366804 	-1.70843e-19
1.07812 	-0.984375 	0.5 	39.2507 	-0.37343 	-6.95388e-20
1.09375 	-0.984375 	0.5 	39.2584 	-0.380109 	-4.02259e-20
1.10938 	-0.984375 	0.5 	39.2658 	-0.385716 	-4.16412e-20
1.125 	-0.984375 	0.5 	39.2726 	-0.391534 	3.03936e-19
1.14062 	-0.984375 	0.5 	39.2805 	-0.397937 	1.15339e-18
1.15625 	-0.984375 	0.5 	39.2881 	-0.404538 	7.16971e-19
1.17188 	-0.984375 	0.5 	39.2959 	-0.410063 	3.45122e-19
1.1875 	-0.984375 	0.5 	39.3044 	-0.415065 	4.50027e-19
1.20312 	-0.984375 	0.5 	39.3129 	-0.420067 	5.54931e-19
1.21875 	-0.984375 	0.5 	39.3207 	-0.426003 	1.12078e-19
1.23438 	-0.984375 	0.5 	39.3284 	-0.431195 	7.8098e-19
1.25 	-0.984375 	0.5 	39.3362 	-0.435791 	7.84547e-19
1.26562 	-0.984375 	0.5 	39.3445 	-0.439864 	-1.80244e-19
1.28125 	-0.984375 	0.5 	39.3527 	-0.444295 	-1.81362e-21
1.29688 	-0.984375 	0.5 	39.3603 	-0.448529 	6.7037e-19
1.3125 	-0.984375 	0.5 	39.3691 	-0.45144 	-1.74116e-19
1.32812 	-0.984375 	0.5 	39.3763 	-0.454441 	-8.36428e-19
1.34375 	-0.984375 	0.5 	39.385 	-0.457628 	2.32075e-19
1.35938 	-0.984375 	0.5 	39.3935 	-0.460837 	3.82095e-19
1.375 	-0.984375 	0.5 	39.4014 	-0.464166 	2.87743e-19
1.39062 	-0.984375 	0.5 	39.4093 	-0.46672 	2.91325e-19
1.40625 	-0.984375 	0.5 	39.4173 	-0.469359 	6.03777e-20
1.42188 	-0.984375 	0.5 	39.4253 	-0.472508 	-1.63158e-19
1.4375 	-0.984375 	0.5 	39.4329 	-0.474344 	-6.11844e-19
1.45312 	-0.984375 	0.5 	39.4401 	-0.476542 	-7.07619e-19
1.46875 	-0.984375 	0.5 	39.4473 	-0.478789 	-7.38064e-19
1.48438 	-0.984375 	0.5 	39.4559 	-0.481179 	-2.56397e-20
-0.5 	-0.96875 	0.5 	39.3667 	0.397705 	4.35736e-20
-0.484375 	-0.96875 	0.5 	39.3607 	0.394151 	-4.79524e-22
-0.46875 	-0.96875 	0.5 	39.3544 	0.390142 	-2.53907e-19
-0.453125 	-0.96875 	0.5 	39.348 	0.38666 	-1.86007e-19
-0.4375 	-0.96875 	0.5 	39.3419 	0.383619 	2.64445e-20
-0.421875 	-0.96875 	0.5 	39.3359 	0.379662 	2.31568e-19
-0.40625 	-0.96875 	0.5 	39.3308 	0.375739 	6.60462e-19
-0.390625 	-0.96875 	0.5 	39.3244 	0.371345 	3.45094e-19
-0.375 	-0.96875 	0.5 	39.3184 	0.366984 	-2.56798e-19
-0.359375 	-0.96875 	0.5 	39.3121 	0.36257 	2.09868e-21
-0.34375 	-0.96875 	0.5 	39.3062 	0.357485 	-1.81144e-20
-0.328125 	-0.96875 	0.5 	39.3014 	0.352319 	-3.95896e-20
-0.3125 	-0.96875 	0.5 	39.2957 	0.346731 	-1.90925e-19
-0.296875 	-0.96875 	0.5 	39.2895 	0.3424 	-3.0306e-19
-0.28125 	-0.96875 	0.5 	39.2832 	0.338252 	-2.10791e-20
-0.265625 	-0.96875 	0.5 	39.277 	0.334361 	3.51899e-20
-0.25 	-0.96875 	0.5 	39.2718 	0.329402 	1.09703e-19
-0.234375 	-0.96875 	0.5 	39.2646 	0.324346 	-1.7255e-19
-0.21875 	-0.96875 	0.5 	39.2594 	0.318553 	-6.69645e-19
-0.203125 	-0.96875 	0.5 	39.2537 	0.314093 	-1.1682e-19
-0.1875 	-0.96875 	0.5 	39.249 	0.308205 	-1.7226e-20
-0.171875 	-0.96875 	0.5 	39.2439 	0.302485 	9.0254e-20
-0.15625 	-0.96875 	0.5 	39.2395 	0.297074 	-4.12561e-20
-0.140625 	-0.96875 	0.5 	39.2352 	0.291281 	-4.12971e-20
-0.125 	-0.96875 	0.5 	39.2297 	0.285439 	-1.01876e-18
-0.109375 	-0.96875 	0.5 	39.2255 	0.279342 	-8.85745e-20
-0.09375 	-0.96875 	0.5 	39.2208 	0.273264 	3.07409e-19
-0.078125 	-0.96875 	0.5 	39.2156 	0.267409 	1.7548e-19
-0.0625 	-0.96875 	0.5 	39.2108 	0.261538 	2.96331e-19
-0.046875 	-0.96875 	0.5 	39.206 	0.25568 	3.07811e-19
-0.03125 	-0.96875 	0.5 	39.2013 	0.249055 	-2.66277e-19
-0.015625 	-0.96875 	0.5 	39.1968 	0.242505 	-3.32048e-19
0 	-0.96875 	0.5 	39.1918 	0.236264 	1.69799e-21
0.015625 	-0.96875 	0.5 	39.1876 	0.229468 	1.78581e-20
0.03125 	-0.96875 	0.5 	39.1833 	0.22266 	-1.11182e-19
0.046875 	-0.96875 	0.5 	39.1791 	0.215655 	-6.14081e-19
0.0625 	-0.96875 	0.5 	39.1732 	0.209215 	-1.69121e-19
0.078125 	-0.96875 	0.5 	39.1706 	0.201716 	-3.94259e-19
0.09375 	-0.96875 	0.5 	39.1658 	0.195338 	-6.45783e-20
0.109375 	-0.96875 	0.5 	39.1618 	0.188996 	6.09196e-21
0.125 	-0.96875 	0.5 	39.158 	0.180843 	-4.97138e-20
0.140625 	-0.96875 	0.5 	39.1539 	0.173495 	-1.88307e-19
0.15625 	-0.96875 	0.5 	39.1499 	0.166327 	-2.25109e-19
0.171875 	-0.96875 	0.5 	39.1459 	0.158324 	5.15591e-20
0.1875 	-0.96875 	0.5 	39.1425 	0.149774 	-4.62758e-21
0.203125 	-0.96875 	0.5 	39.1392 	0.142578 	1.08532e-19
0.21875 	-0.96875 	0.5 	39.1367 	0.134034 	-1.82515e-19
0.234375 	-0.96875 	0.5 	39.1349 	0.125499 	-1.79341e-20
0.25 	-0.96875 	0.5 	39.1315 	0.11698 	-9.73249e-20
0.265625 	-0.96875 	0.5 	39.1267 	0.108647 	-7.21089e-20
0.28125 	-0.96875 	0.5 	39.1233 	0.0999469 	-4.74217e-20
0.296875 	-0.96875 	0.5 	39.1192 	0.0920475 	3.7015e-19
0.3125 	-0.96875 	0.5 	39.1169 	0.0833753 	-1.98678e-20
0.328125 	-0.96875 	0.5 	39.1143 	0.0738752 	7.88773e-20
0.34375 	-0.96875 	0.5 	39.1118 	0.0646804 	1.66163e-19
0.359375 	-0.96875 	0.5 	39.1089 	0.0545001 	-4.35641e-20
0.375 	-0.96875 	0.5 	39.1064 	0.0448323 	-7.99146e-20
0.390625 	-0.96875 	0.5 	39.1055 	0.0362916 	-1.91156e-20
0.40625 	-0.96875 	0.5 	39.1044 	0.0270466 	1.2643e-19
0.421875 	-0.96875 	0.5 	39.1003 	0.0187437 	2.0214e-19
0.4375 	-0.96875 	0.5 	39.0996 	0.00749036 	-6.63384e-21
0.453125 	-0.96875 	0.5 	39.0986 	-0.0025675 	-1.52187e-19
0.46875 	-0.96875 	0.5 	39.0979 	-0.012788 	6.39302e-20
0.484375 	-0.96875 	0.5 	39.0975 	-0.0235461 	-7.96809e-21
0.5 	-0.96875 	0.5 	39.0971 	-0.0331756 	3.13749e-20
0.515625 	-0.96875 	0.5 	39.0967 	-0.0431898 	5.77661e-20
0.53125 	-0.96875 	0.5 	39.0965 	-0.0536402 	9.63175e-20
0.546875 	-0.96875 	0.5 	39.0964 	-0.0637008 	4.68347e-20
0.5625 	-0.96875 	0.5 	39.0967 	-0.0747403 	3.95734e-19
0.578125 	-0.96875 	0.5 	39.0977 	-0.0864196 	5.90187e-19
0.59375 	-0.96875 	0.5 	39.0979 	-0.0967973 	-8.11031e-20
0.609375 	-0.96875 	0.5 	39.0989 	-0.106863 	6.36282e-21
0.625 	-0.96875 	0.5 	39.1012 	-0.115558 	9.12794e-20
0.640625 	-0.96875 	0.5 	39.1023 	-0.125667 	1.05996e-19
0.65625 	-0.96875 	0.5 	39.1047 	-0.135271 	1.24429e-19
0.671875 	-0.96875 	0.5 	39.1074 	-0.146394 	-5.25157e-20
0.6875 	-0.96875 	0.5 	39.1095 	-0.157881 	-1.348e-19
0.703125 	-0.96875 	0.5 	39.1118 	-0.167705 	-2.31482e-20
0.71875 	-0.96875 	0.5 	39.1147 	-0.177862 	-1.40019e-20
0.734375 	-0.96875 	0.5 	39.1174 	-0.188275 	1.06584e-20
0.75 	-0.96875 	0.5 	39.1208 	-0.198281 	1.78644e-21
0.765625 	-0.96875 	0.5 	39.1227 	-0.20906 	-4.02407e-20
0.78125 	-0.96875 	0.5 	39.1284 	-0.219247 	-8.61201e-20
0.796875 	-0.96875 	0.5 	39.1332 	-0.229082 	2.12952e-25
0.8125 	-0.96875 	0.5 	39.137 	-0.23838 	-2.00707e-20
0.828125 	-0.96875 	0.5 	39.143 	-0.247967 	5.02907e-20
0.84375 	-0.96875 	0.5 	39.1473 	-0.25751 	6.23879e-20
0.859375 	-0.96875 	0.5 	39.1519 	-0.268475 	-8.87379e-20
0.875 	-0.96875 	0.5 	39.158 	-0.276981 	2.95669e-20
0.890625 	-0.96875 	0.5 	39.164 	-0.285964 	3.06937e-19
0.90625 	-0.96875 	0.5 	39.1713 	-0.294505 	3.60714e-20
0.921875 	-0.96875 	0.5 	39.1777 	-0.303574 	-5.15145e-20
0.9375 	-0.96875 	0.5 	39.1829 	-0.311737 	-4.19514e-20
0.953125 	-0.96875 	0.5 	39.1888 	-0.320299 	-7.30239e-20
0.96875 	-0.96875 	0.5 	39.1952 	-0.329008 	-9.82562e-20
0.984375 	-0.96875 	0.5 	39.2017 	-0.337174 	-4.90883e-19
1 	-0.96875 	0.5 	39.2085 	-0.344793 	-3.52235e-19
1.01562 	-0.96875 	0.5 	39.2154 	-0.352413 	-2.13587e-19
1.03125 	-0.96875 	0.5 	39.2221 	-0.360291 	-1.6636e-19
1.04688 	-0.96875 	0.5 	39.2291 	-0.366709 	-6.88639e-20
1.0625 	-0.96875 	0.5 	39.2361 	-0.373235 	3.49792e-20
1.07812 	-0.96875 	0.5 	39.2429 	-0.380343 	1.24037e-19
1.09375 	-0.96875 	0.5 	39.2508 	-0.387073 	1.34912e-19
1.10938 	-0.96875 	0.5 	39.2583 	-0.39298 	2.57349e-19
1.125 	-0.96875 	0.5 	39.2661 	-0.398969 	3.46184e-19
1.14062 	-0.96875 	0.5 	39.274 	-0.405152 	3.80199e-19
1.15625 	-0.96875 	0.5 	39.2815 	-0.412572 	1.09479e-19
1.17188 	-0.96875 	0.5 	39.2898 	-0.418624 	8.70661e-20
1.1875 	-0.96875 	0.5 	39.2988 	-0.424451 	7.71577e-20
1.20312 	-0.96875 	0.5 	39.307 	-0.429493 	1.33969e-19
1.21875 	-0.96875 	0.5 	39.3147 	-0.434881 	8.67623e-20
1.23438 	-0.96875 	0.5 	39.3229 	-0.439111 	8.41458e-20
1.25 	-0.96875 	0.5 	39.3313 	-0.443433 	3.70223e-19
1.26562 	-0.96875 	0.5 	39.3392 	-0.44787 	1.01202e-19
1.28125 	-0.96875 	0.5 	39.347 	-0.452258 	5.29422e-19
1.29688 	-0.96875 	0.5 	39.3553 	-0.455795 	4.53821e-19
1.3125 	-0.96875 	0.5 	39.3637 	-0.459208 	2.36008e-19
1.32812 	-0.96875 	0.5 	39.3721 	-0.462506 	-7.50276e-20
1.34375 	-0.96875 	0.5 	39.3805 	-0.465796 	-5.90006e-22
1.35938 	-0.96875 	0.5 	39.3889 	-0.469102 	5.32732e-20
1.375 	-0.96875 	0.5 	39.3974 	-0.47251 	1.33029e-19
1.39062 	-0.96875 	0.5 	39.4051 	-0.475506 	2.96701e-19
1.40625 	-0.96875 	0.5 	39.414 	-0.479523 	1.67038e-19
1.42188 	-0.96875 	0.5 	39.4222 	-0.484142 	1.3914e-19
1.4375 	-0.96875 	0.5 	39.4295 	-0.482685 	-8.52287e-19
1.45312 	-0.96875 	0.5 	39.4367 	-0.484829 	-1.01966e-18
1.46875 	-0.96875 	0.5 	39.4457 	-0.486707 	7.41131e-19
1.48438 	-0.96875 	0.5 	39.4541 	-0.489011 	2.53424e-19
-0.5 	-0.953125 	0.5 	39.362 	0.403927 	5.32083e-20
-0.484375 	-0.953125 	0.5 	39.3559 	0.400358 	2.53391e-20
-0.46875 	-0.953125 	0.5 	39.3496 	0.396485 	-1.2875e-19
-0.453125 	-0.953125 	0.5 	39.3432 	0.393029 	-4.56555e-20
-0.4375 	-0.953125 	0.5 	39.3368 	0.389574 	3.74388e-20
-0.421875 	-0.953125 	0.5 	39.3307 	0.38561 	-2.6731e-21
-0.40625 	-0.953125 	0.5 	39.3247 	0.38137 	-8.28088e-20
-0.390625 	-0.953125 	0.5 	39.3188 	0.37713 	-1.62944e-19
-0.375 	-0.953125 	0.5 	39.3127 	0.373003 	1.04609e-19
-0.359375 	-0.953125 	0.5 	39.3069 	0.368511 	-1.16083e-20
-0.34375 	-0.953125 	0.5 	39.3013 	0.363276 	-3.71863e-20
-0.328125 	-0.953125 	0.5 	39.2957 	0.357929 	-6.32862e-20
-0.3125 	-0.953125 	0.5 	39.2897 	0.352899 	-5.32213e-20
-0.296875 	-0.953125 	0.5 	39.2824 	0.348287 	-1.24382e-20
-0.28125 	-0.953125 	0.5 	39.2762 	0.344421 	4.43742e-20
-0.265625 	-0.953125 	0.5 	39.2709 	0.340437 	3.87449e-20
-0.25 	-0.953125 	0.5 	39.2659 	0.335168 	4.06146e-20
-0.234375 	-0.953125 	0.5 	39.2598 	0.329798 	2.74401e-19
-0.21875 	-0.953125 	0.5 	39.2519 	0.325024 	-1.33458e-19
-0.203125 	-0.953125 	0.5 	39.2466 	0.31957 	-2.72343e-19
-0.1875 	-0.953125 	0.5 	39.2424 	0.313852 	-3.56456e-19
-0.171875 	-0.953125 	0.5 	39.2373 	0.307788 	-5.72198e-20
-0.15625 	-0.953125 	0.5 	39.2325 	0.302038 	-3.0205e-20
-0.140625 	-0.953125 	0.5 	39.2276 	0.296304 	-1.00827e-20
-0.125 	-0.953125 	0.5 	39.223 	0.290414 	-9.50553e-20
-0.109375 	-0.953125 	0.5 	39.2179 	0.284448 	9.80868e-19
-0.09375 	-0.953125 	0.5 	39.2132 	0.278297 	4.78853e-19
-0.078125 	-0.953125 	0.5 	39.2079 	0.272463 	1.29207e-20
-0.0625 	-0.953125 	0.5 	39.2033 	0.266453 	1.53395e-19
-0.046875 	-0.953125 	0.5 	39.1982 	0.260323 	3.29938e-19
-0.03125 	-0.953125 	0.5 	39.1936 	0.253795 	6.18439e-20
-0.015625 	-0.953125 	0.5 	39.1889 	0.247308 	-3.93008e-19
0 	-0.953125 	0.5 	39.1844 	0.240783 	-3.96776e-20
0.015625 	-0.953125 	0.5 	39.1797 	0.234239 	1.79664e-21
0.03125 	-0.953125 	0.5 	39.1751 	0.227433 	2.54564e-19
0.046875 	-0.953125 	0.5 	39.1693 	0.220457 	4.8627e-20
0.0625 	-0.953125 	0.5 	39.1646 	0.213442 	-1.69471e-19
0.078125 	-0.953125 	0.5 	39.1607 	0.206599 	-6.30523e-20
0.09375 	-0.953125 	0.5 	39.157 	0.199613 	2.22752e-20
0.109375 	-0.953125 	0.5 	39.1534 	0.19217 	7.1084e-20
0.125 	-0.953125 	0.5 	39.1496 	0.18507 	4.88647e-20
0.140625 	-0.953125 	0.5 	39.1458 	0.177943 	-9.56486e-21
0.15625 	-0.953125 	0.5 	39.1413 	0.170242 	1.86705e-19
0.171875 	-0.953125 	0.5 	39.1368 	0.162259 	2.95437e-19
0.1875 	-0.953125 	0.5 	39.1331 	0.15445 	1.0495e-19
0.203125 	-0.953125 	0.5 	39.1298 	0.145889 	3.54169e-19
0.21875 	-0.953125 	0.5 	39.1263 	0.137549 	-1.71205e-19
0.234375 	-0.953125 	0.5 	39.1239 	0.128713 	4.94501e-21
0.25 	-0.953125 	0.5 	39.1206 	0.120196 	-2.58817e-20
0.265625 	-0.953125 	0.5 	39.1162 	0.11151 	-4.14341e-20
0.28125 	-0.953125 	0.5 	39.1132 	0.102468 	-2.39607e-21
0.296875 	-0.953125 	0.5 	39.1105 	0.0947519 	2.36578e-20
0.3125 	-0.953125 	0.5 	39.1075 	0.0860853 	5.42077e-20
0.328125 	-0.953125 	0.5 	39.1043 	0.0762521 	3.02479e-20
0.34375 	-0.953125 	0.5 	39.1012 	0.0671746 	1.01125e-19
0.359375 	-0.953125 	0.5 	39.0986 	0.0572689 	8.02748e-20
0.375 	-0.953125 	0.5 	39.0953 	0.0465867 	-9.77767e-20
0.390625 	-0.953125 	0.5 	39.0935 	0.036538 	-7.02814e-20
0.40625 	-0.953125 	0.5 	39.0923 	0.0270914 	1.46291e-19
0.421875 	-0.953125 	0.5 	39.0899 	0.0186816 	8.45527e-20
0.4375 	-0.953125 	0.5 	39.0887 	0.00821551 	-2.21924e-19
0.453125 	-0.953125 	0.5 	39.0878 	-0.00183997 	-4.80632e-20
0.46875 	-0.953125 	0.5 	39.0867 	-0.011383 	-1.31258e-20
0.484375 	-0.953125 	0.5 	39.0856 	-0.0223993 	-1.41666e-20
0.5 	-0.953125 	0.5 	39.0853 	-0.0320768 	-9.0356e-21
0.515625 	-0.953125 	0.5 	39.085 	-0.0421988 	1.59083e-20
0.53125 	-0.953125 	0.5 	39.0848 	-0.0540044 	2.36279e-21
0.546875 	-0.953125 	0.5 	39.0845 	-0.0636745 	7.89031e-20
0.5625 	-0.953125 	0.5 	39.0845 	-0.0739685 	1.15741e-19
0.578125 	-0.953125 	0.5 	39.0852 	-0.085838 	4.59844e-20
0.59375 	-0.953125 	0.5 	39.086 	-0.097328 	-4.58371e-21
0.609375 	-0.953125 	0.5 	39.087 	-0.108949 	-5.11903e-21
0.625 	-0.953125 	0.5 	39.0879 	-0.119288 	1.1315e-20
0.640625 	-0.953125 	0.5 	39.089 	-0.129376 	2.80961e-20
0.65625 	-0.953125 	0.5 	39.0917 	-0.138932 	3.7828e-20
0.671875 	-0.953125 	0.5 	39.0949 	-0.149634 	-2.94644e-20
0.6875 	-0.953125 	0.5 	39.0984 	-0.160356 	-7.39349e-20
0.703125 	-0.953125 	0.5 	39.1002 	-0.171315 	2.30817e-19
0.71875 	-0.953125 	0.5 	39.1025 	-0.181854 	2.88745e-19
0.734375 	-0.953125 	0.5 	39.1055 	-0.191704 	-3.60986e-19
0.75 	-0.953125 	0.5 	39.1079 	-0.202852 	-5.9435e-20
0.765625 	-0.953125 	0.5 	39.1118 	-0.213475 	8.07998e-20
0.78125 	-0.953125 	0.5 	39.1173 	-0.22353 	2.72684e-20
0.796875 	-0.953125 	0.5 	39.1211 	-0.233622 	-4.1818e-20
0.8125 	-0.953125 	0.5 	39.1255 	-0.243052 	-3.92567e-20
0.828125 	-0.953125 	0.5 	39.1314 	-0.25269 	1.04802e-20
0.84375 	-0.953125 	0.5 	39.1371 	-0.262608 	7.07443e-20
0.859375 	-0.953125 	0.5 	39.1441 	-0.274658 	-1.83418e-19
0.875 	-0.953125 	0.5 	39.1473 	-0.282976 	-1.74573e-19
0.890625 	-0.953125 	0.5 	39.1528 	-0.291411 	2.04761e-19
0.90625 	-0.953125 	0.5 	39.1589 	-0.301247 	-1.22936e-19
0.921875 	-0.953125 	0.5 	39.1655 	-0.310398 	-1.12078e-19
0.9375 	-0.953125 	0.5 	39.1725 	-0.318557 	4.65508e-20
0.953125 	-0.953125 	0.5 	39.1777 	-0.326785 	3.14465e-20
0.96875 	-0.953125 	0.5 	39.1849 	-0.33456 	3.12655e-19
0.984375 	-0.953125 	0.5 	39.1923 	-0.343881 	-4.41454e-20
1 	-0.953125 	0.5 	39.1975 	-0.351749 	-1.07436e-18
1.01562 	-0.953125 	0.5 	39.2056 	-0.359214 	-1.03573e-19
1.03125 	-0.953125 	0.5 	39.2137 	-0.36682 	9.82351e-20
1.04688 	-0.953125 	0.5 	39.221 	-0.375123 	-1.87717e-20
1.0625 	-0.953125 	0.5 	39.2283 	-0.380999 	4.03559e-19
1.07812 	-0.953125 	0.5 	39.235 	-0.38809 	2.58414e-19
1.09375 	-0.953125 	0.5 	39.2425 	-0.394131 	3.71704e-19
1.10938 	-0.953125 	0.5 	39.2507 	-0.400886 	2.95584e-19
1.125 	-0.953125 	0.5 	39.259 	-0.407178 	-1.58251e-19
1.14062 	-0.953125 	0.5 	39.2674 	-0.413948 	7.47009e-20
1.15625 	-0.953125 	0.5 	39.2756 	-0.421515 	-4.14826e-19
1.17188 	-0.953125 	0.5 	39.2842 	-0.426857 	-3.19653e-19
1.1875 	-0.953125 	0.5 	39.2927 	-0.432436 	-3.72421e-20
1.20312 	-0.953125 	0.5 	39.3004 	-0.437038 	4.89086e-20
1.21875 	-0.953125 	0.5 	39.3081 	-0.443028 	7.79253e-21
1.23438 	-0.953125 	0.5 	39.3152 	-0.448933 	-4.0512e-19
1.25 	-0.953125 	0.5 	39.3245 	-0.452597 	-1.00922e-19
1.26562 	-0.953125 	0.5 	39.3343 	-0.455875 	2.66026e-19
1.28125 	-0.953125 	0.5 	39.3425 	-0.459818 	-1.52654e-19
1.29688 	-0.953125 	0.5 	39.3505 	-0.463293 	-6.33122e-19
1.3125 	-0.953125 	0.5 	39.359 	-0.467088 	-4.89951e-19
1.32812 	-0.953125 	0.5 	39.3679 	-0.470641 	3.36353e-19
1.34375 	-0.953125 	0.5 	39.377 	-0.474522 	2.6722e-20
1.35938 	-0.953125 	0.5 	39.3854 	-0.477642 	3.30845e-20
1.375 	-0.953125 	0.5 	39.3938 	-0.481312 	2.00015e-19
1.39062 	-0.953125 	0.5 	39.4009 	-0.483777 	3.89119e-19
1.40625 	-0.953125 	0.5 	39.4095 	-0.486492 	2.59552e-19
1.42188 	-0.953125 	0.5 	39.4185 	-0.489302 	2.66161e-20
1.4375 	-0.953125 	0.5 	39.4263 	-0.491482 	-4.81458e-19
1.45312 	-0.953125 	0.5 	39.4349 	-0.493186 	5.75433e-19
1.46875 	-0.953125 	0.5 	39.4448 	-0.493549 	1.89262e-18
1.48438 	-0.953125 	0.5 	39.4528 	-0.496414 	8.83353e-19
-0.5 	-0.9375 	0.5 	39.3575 	0.409896 	3.00173e-19
-0.484375 	-0.9375 	0.5 	39.3509 	0.406725 	-1.79508e-20
-0.46875 	-0.9375 	0.5 	39.344 	0.40347 	-1.74413e-19
-0.453125 	-0.9375 	0.5 	39.3374 	0.400045 	-2.39816e-19
-0.4375 	-0.9375 	0.5 	39.3311 	0.395987 	4.68017e-20
-0.421875 	-0.9375 	0.5 	39.3248 	0.392109 	2.35158e-19
-0.40625 	-0.9375 	0.5 	39.3188 	0.387669 	-2.06263e-19
-0.390625 	-0.9375 	0.5 	39.3127 	0.383636 	-1.06e-19
-0.375 	-0.9375 	0.5 	39.3069 	0.379119 	3.64374e-19
-0.359375 	-0.9375 	0.5 	39.2997 	0.373935 	4.321e-20
-0.34375 	-0.9375 	0.5 	39.2943 	0.369327 	2.05498e-20
-0.328125 	-0.9375 	0.5 	39.2886 	0.36444 	-1.75045e-21
-0.3125 	-0.9375 	0.5 	39.283 	0.360423 	1.64385e-20
-0.296875 	-0.9375 	0.5 	39.2771 	0.355564 	7.67975e-20
-0.28125 	-0.9375 	0.5 	39.271 	0.351674 	1.30226e-19
-0.265625 	-0.9375 	0.5 	39.2648 	0.346119 	3.54402e-20
-0.25 	-0.9375 	0.5 	39.2599 	0.340882 	1.64922e-20
-0.234375 	-0.9375 	0.5 	39.2533 	0.335769 	-1.50346e-20
-0.21875 	-0.9375 	0.5 	39.2464 	0.330834 	-4.24633e-19
-0.203125 	-0.9375 	0.5 	39.2406 	0.324619 	1.44427e-20
-0.1875 	-0.9375 	0.5 	39.2365 	0.319089 	-5.83855e-19
-0.171875 	-0.9375 	0.5 	39.2308 	0.312795 	-3.02862e-20
-0.15625 	-0.9375 	0.5 	39.2263 	0.307095 	4.73876e-21
-0.140625 	-0.9375 	0.5 	39.2211 	0.301275 	1.18596e-20
-0.125 	-0.9375 	0.5 	39.2159 	0.2957 	-1.08462e-19
-0.109375 	-0.9375 	0.5 	39.2108 	0.289504 	-6.64446e-20
-0.09375 	-0.9375 	0.5 	39.2058 	0.283278 	2.61262e-19
-0.078125 	-0.9375 	0.5 	39.2009 	0.277258 	5.90856e-20
-0.0625 	-0.9375 	0.5 	39.1956 	0.271196 	6.06399e-21
-0.046875 	-0.9375 	0.5 	39.1906 	0.265148 	1.7402e-19
-0.03125 	-0.9375 	0.5 	39.1856 	0.258541 	5.41258e-19
-0.015625 	-0.9375 	0.5 	39.1813 	0.252014 	-1.08259e-19
0 	-0.9375 	0.5 	39.1765 	0.245442 	-3.5008e-20