-0.5 	-1 	0.5 	39.9443 	-0.120389 	1.44664e-18
-0.484375 	-1 	0.5 	39.9465 	-0.12273 	2.39433e-18
-0.46875 	-1 	0.5 	39.9487 	-0.125372 	4.52054e-18
-0.453125 	-1 	0.5 	39.9511 	-0.127758 	2.81255e-18
-0.4375 	-1 	0.5 	39.9534 	-0.129927 	-6.79733e-19
-0.421875 	-1 	0.5 	39.9557 	-0.132021 	-1.3846e-18
-0.40625 	-1 	0.5 	39.9584 	-0.134382 	-1.29127e-18
-0.390625 	-1 	0.5 	39.9612 	-0.136658 	-2.58711e-18
-0.375 	-1 	0.5 	39.964 	-0.138541 	-1.05541e-18
-0.359375 	-1 	0.5 	39.9667 	-0.14016 	-4.80627e-19
-0.34375 	-1 	0.5 	39.9697 	-0.142136 	-5.59707e-19
-0.328125 	-1 	0.5 	39.9726 	-0.144893 	-1.44968e-18
-0.3125 	-1 	0.5 	39.976 	-0.146432 	-4.50173e-19
-0.296875 	-1 	0.5 	39.9793 	-0.148403 	3.84719e-19
-0.28125 	-1 	0.5 	39.9825 	-0.14954 	3.60788e-19
-0.265625 	-1 	0.5 	39.9859 	-0.150936 	-7.38971e-19
-0.25 	-1 	0.5 	39.9897 	-0.152893 	-3.09868e-18
-0.234375 	-1 	0.5 	39.9934 	-0.153768 	-7.02065e-19
-0.21875 	-1 	0.5 	39.9974 	-0.154659 	1.33713e-18
-0.203125 	-1 	0.5 	40.001 	-0.155761 	9.8731e-19
-0.1875 	-1 	0.5 	40.0051 	-0.156933 	1.14144e-18
-0.171875 	-1 	0.5 	40.0093 	-0.157438 	6.65105e-18
-0.15625 	-1 	0.5 	40.0131 	-0.158115 	3.35466e-18
-0.140625 	-1 	0.5 	40.0174 	-0.158592 	-1.82505e-18
-0.125 	-1 	0.5 	40.0216 	-0.158893 	4.3827e-18
-0.109375 	-1 	0.5 	40.0257 	-0.159009 	3.61636e-18
-0.09375 	-1 	0.5 	40.03 	-0.158875 	1.46291e-19
-0.078125 	-1 	0.5 	40.0346 	-0.158942 	-2.55117e-19
-0.0625 	-1 	0.5 	40.0387 	-0.158902 	-2.29187e-18
-0.046875 	-1 	0.5 	40.0433 	-0.158425 	-3.64447e-18
-0.03125 	-1 	0.5 	40.0478 	-0.156977 	-1.90752e-18
-0.015625 	-1 	0.5 	40.0521 	-0.155901 	-5.74856e-19
0 	-1 	0.5 	40.0561 	-0.155112 	-4.37656e-19
0.015625 	-1 	0.5 	40.0603 	-0.154823 	3.28397e-19
0.03125 	-1 	0.5 	40.0644 	-0.152819 	-7.31853e-19
0.046875 	-1 	0.5 	40.0686 	-0.151224 	-6.21514e-19
0.0625 	-1 	0.5 	40.0728 	-0.149653 	-4.61926e-19
0.078125 	-1 	0.5 	40.0773 	-0.147821 	-7.82041e-19
0.09375 	-1 	0.5 	40.0817 	-0.145928 	-1.39983e-18
0.109375 	-1 	0.5 	40.0859 	-0.144158 	-1.02299e-18
0.125 	-1 	0.5 	40.09 	-0.14223 	8.44803e-19
0.140625 	-1 	0.5 	40.0939 	-0.139148 	-3.82056e-19
0.15625 	-1 	0.5 	40.0976 	-0.136221 	-8.93882e-19
0.171875 	-1 	0.5 	40.1011 	-0.133604 	-2.92018e-19
0.1875 	-1 	0.5 	40.1051 	-0.130548 	-1.29177e-19
0.203125 	-1 	0.5 	40.1083 	-0.127529 	1.6698e-19
0.21875 	-1 	0.5 	40.1116 	-0.12427 	2.89641e-19
0.234375 	-1 	0.5 	40.1144 	-0.121056 	4.70412e-19
0.25 	-1 	0.5 	40.1171 	-0.117489 	3.85251e-19
0.265625 	-1 	0.5 	40.1206 	-0.114259 	7.24637e-20
0.28125 	-1 	0.5 	40.1235 	-0.11085 	-4.32549e-20
0.296875 	-1 	0.5 	40.1258 	-0.106703 	-7.05981e-21
0.3125 	-1 	0.5 	40.1289 	-0.102598 	3.40214e-19
0.328125 	-1 	0.5 	40.1313 	-0.098627 	-4.71231e-19
0.34375 	-1 	0.5 	40.1336 	-0.094607 	-1.05659e-20
0.359375 	-1 	0.5 	40.1357 	-0.090517 	1.29387e-18
0.375 	-1 	0.5 	40.1378 	-0.0858424 	2.01636e-19
0.390625 	-1 	0.5 	40.1391 	-0.0815556 	1.00383e-18
0.40625 	-1 	0.5 	40.1406 	-0.0776736 	9.7246e-19
0.421875 	-1 	0.5 	40.1421 	-0.0734809 	8.7952e-19
0.4375 	-1 	0.5 	40.1435 	-0.0687095 	2.29527e-18
0.453125 	-1 	0.5 	40.1444 	-0.0650011 	3.51749e-19
0.46875 	-1 	0.5 	40.1452 	-0.0601176 	3.86533e-19
0.484375 	-1 	0.5 	40.1459 	-0.0556497 	-1.53615e-18
0.5 	-1 	0.5 	40.1465 	-0.051162 	6.31851e-20
0.515625 	-1 	0.5 	40.1466 	-0.047246 	2.96754e-19
0.53125 	-1 	0.5 	40.1467 	-0.0429257 	3.92561e-19
0.546875 	-1 	0.5 	40.1472 	-0.0383392 	1.32505e-19
0.5625 	-1 	0.5 	40.1473 	-0.033828 	-1.31128e-18
0.578125 	-1 	0.5 	40.1466 	-0.0290106 	1.2062e-18
0.59375 	-1 	0.5 	40.1461 	-0.0250189 	7.63374e-19
0.609375 	-1 	0.5 	40.1452 	-0.0205038 	2.79793e-19
0.625 	-1 	0.5 	40.1441 	-0.0167404 	-3.12787e-20
0.640625 	-1 	0.5 	40.1433 	-0.0125431 	-1.05278e-19
0.65625 	-1 	0.5 	40.1422 	-0.0084982 	-3.38722e-19
0.671875 	-1 	0.5 	40.1403 	-0.00504402 	-5.27787e-19
0.6875 	-1 	0.5 	40.1387 	-0.00115744 	2.04601e-19
0.703125 	-1 	0.5 	40.1373 	0.00216367 	-1.40053e-18
0.71875 	-1 	0.5 	40.1359 	0.00626188 	5.42095e-19
0.734375 	-1 	0.5 	40.1344 	0.0103488 	-1.80708e-19
0.75 	-1 	0.5 	40.1322 	0.0138199 	2.74443e-18
0.765625 	-1 	0.5 	40.1309 	0.0172408 	1.48035e-18
0.78125 	-1 	0.5 	40.1283 	0.0206319 	-4.84366e-19
0.796875 	-1 	0.5 	40.1256 	0.0238538 	2.77744e-21
0.8125 	-1 	0.5 	40.1235 	0.026385 	-6.54682e-19
0.828125 	-1 	0.5 	40.1215 	0.029686 	-9.39883e-19
0.84375 	-1 	0.5 	40.1193 	0.0322177 	-3.01439e-18
0.859375 	-1 	0.5 	40.1167 	0.034799 	-2.34956e-18
0.875 	-1 	0.5 	40.114 	0.0374879 	1.14143e-18
0.890625 	-1 	0.5 	40.1113 	0.0398989 	-1.08588e-18
0.90625 	-1 	0.5 	40.1086 	0.0421758 	-1.36679e-18
0.921875 	-1 	0.5 	40.1057 	0.0442053 	-2.80494e-19
0.9375 	-1 	0.5 	40.1029 	0.0462715 	-7.66457e-19
0.953125 	-1 	0.5 	40.1001 	0.048146 	-8.48401e-19
0.96875 	-1 	0.5 	40.0972 	0.0499809 	1.28937e-19
0.984375 	-1 	0.5 	40.0945 	0.0519001 	1.31935e-19
1 	-1 	0.5 	40.0916 	0.0531429 	1.86165e-18
1.01562 	-1 	0.5 	40.0883 	0.0543096 	5.25541e-18
1.03125 	-1 	0.5 	40.0854 	0.0555696 	3.10994e-18
1.04688 	-1 	0.5 	40.0826 	0.0565842 	3.63204e-19
1.0625 	-1 	0.5 	40.0798 	0.0576023 	8.75556e-19
1.07812 	-1 	0.5 	40.0769 	0.05815 	2.59429e-19
1.09375 	-1 	0.5 	40.074 	0.0594316 	3.13656e-18
1.10938 	-1 	0.5 	40.0714 	0.0596938 	6.27859e-18
1.125 	-1 	0.5 	40.0686 	0.0605263 	2.52876e-18
1.14062 	-1 	0.5 	40.0658 	0.0612354 	-3.17258e-19
1.15625 	-1 	0.5 	40.0627 	0.0615117 	-2.59825e-19
1.17188 	-1 	0.5 	40.0597 	0.0617863 	-1.93186e-19
1.1875 	-1 	0.5 	40.057 	0.0621032 	-1.88633e-19
1.20312 	-1 	0.5 	40.0546 	0.0620945 	-1.68293e-20
1.21875 	-1 	0.5 	40.0516 	0.0617683 	4.684e-20
1.23438 	-1 	0.5 	40.0495 	0.0610664 	-1.21321e-18
1.25 	-1 	0.5 	40.047 	0.0611148 	-5.15653e-19
1.26562 	-1 	0.5 	40.0442 	0.0608428 	2.51626e-19
1.28125 	-1 	0.5 	40.0418 	0.0605214 	3.80544e-19
1.29688 	-1 	0.5 	40.0396 	0.0600935 	8.67018e-19
1.3125 	-1 	0.5 	40.0373 	0.0591296 	3.43098e-18
1.32812 	-1 	0.5 	40.0348 	0.0594924 	5.53612e-19
1.34375 	-1 	0.5 	40.0323 	0.0589136 	4.35581e-19
1.35938 	-1 	0.5 	40.0303 	0.0579687 	-7.03813e-19
1.375 	-1 	0.5 	40.0284 	0.0573141 	4.34961e-19
1.39062 	-1 	0.5 	40.0266 	0.0568889 	2.52144e-18
1.40625 	-1 	0.5 	40.0248 	0.0559958 	4.71051e-19
1.42188 	-1 	0.5 	40.023 	0.0551448 	1.62513e-18
1.4375 	-1 	0.5 	40.0214 	0.0543298 	1.55208e-18
1.45312 	-1 	0.5 	40.0196 	0.0534336 	3.28859e-18
1.46875 	-1 	0.5 	40.0178 	0.0523141 	1.32369e-18
1.48438 	-1 	0.5 	40.0164 	0.0510268 	8.91837e-19
-0.5 	-0.984375 	0.5 	39.9419 	-0.122521 	2.45871e-18
-0.484375 	-0.984375 	0.5 	39.9442 	-0.125018 	2.33186e-18
-0.46875 	-0.984375 	0.5 	39.9465 	-0.127512 	2.23743e-18
-0.453125 	-0.984375 	0.5 	39.9487 	-0.130006 	2.14299e-18
-0.4375 	-0.984375 	0.5 	39.951 	-0.132469 	1.59709e-18
-0.421875 	-0.984375 	0.5 	39.9534 	-0.134667 	5.40618e-20
-0.40625 	-0.984375 	0.5 	39.9562 	-0.136994 	-1.67753e-18
-0.390625 	-0.984375 	0.5 	39.9591 	-0.139192 	-2.3091e-18
-0.375 	-0.984375 	0.5 	39.9619 	-0.141324 	-2.38596e-18
-0.359375 	-0.984375 	0.5 	39.9647 	-0.143108 	-1.1963e-18
-0.34375 	-0.984375 	0.5 	39.9676 	-0.145504 	-1.71219e-18
-0.328125 	-0.984375 	0.5 	39.9709 	-0.147465 	-1.36769e-18
-0.3125 	-0.984375 	0.5 	39.9741 	-0.149396 	-9.76253e-19
-0.296875 	-0.984375 	0.5 	39.9774 	-0.151327 	-5.84819e-19
-0.28125 	-0.984375 	0.5 	39.9809 	-0.153289 	-1.31024e-18
-0.265625 	-0.984375 	0.5 	39.9848 	-0.155271 	-3.44699e-18
-0.25 	-0.984375 	0.5 	39.9886 	-0.157133 	-5.10895e-18
-0.234375 	-0.984375 	0.5 	39.992 	-0.157578 	-1.14994e-18
-0.21875 	-0.984375 	0.5 	39.9959 	-0.158492 	6.33708e-19
-0.203125 	-0.984375 	0.5 	40 	-0.159884 	-1.35191e-18
-0.1875 	-0.984375 	0.5 	40.0041 	-0.161036 	-8.45136e-19
-0.171875 	-0.984375 	0.5 	40.0083 	-0.16174 	3.63523e-18
-0.15625 	-0.984375 	0.5 	40.0122 	-0.162335 	-9.59601e-19
-0.140625 	-0.984375 	0.5 	40.0172 	-0.162598 	-6.47894e-18
-0.125 	-0.984375 	0.5 	40.0213 	-0.163398 	-4.58707e-20
-0.109375 	-0.984375 	0.5 	40.0254 	-0.163564 	3.46379e-19
-0.09375 	-0.984375 	0.5 	40.0299 	-0.163241 	-3.25804e-21
-0.078125 	-0.984375 	0.5 	40.0345 	-0.163166 	-3.85819e-19
-0.0625 	-0.984375 	0.5 	40.039 	-0.163189 	-1.0144e-18
-0.046875 	-0.984375 	0.5 	40.0435 	-0.162147 	-1.07586e-18
-0.03125 	-0.984375 	0.5 	40.0481 	-0.161443 	-1.56687e-18
-0.015625 	-0.984375 	0.5 	40.0528 	-0.160116 	-7.15446e-19
0 	-0.984375 	0.5 	40.0573 	-0.159725 	-3.48537e-19
0.015625 	-0.984375 	0.5 	40.0615 	-0.159436 	4.17917e-19
0.03125 	-0.984375 	0.5 	40.0658 	-0.157429 	-8.18483e-19
0.046875 	-0.984375 	0.5 	40.0701 	-0.15591 	-5.57474e-19
0.0625 	-0.984375 	0.5 	40.0747 	-0.15386 	8.76434e-20
0.078125 	-0.984375 	0.5 	40.0791 	-0.152498 	-1.58849e-19
0.09375 	-0.984375 	0.5 	40.0837 	-0.15013 	-8.00441e-20
0.109375 	-0.984375 	0.5 	40.088 	-0.148273 	-4.12013e-19
0.125 	-0.984375 	0.5 	40.0922 	-0.146112 	1.39868e-18
0.140625 	-0.984375 	0.5 	40.0963 	-0.143119 	6.23633e-19
0.15625 	-0.984375 	0.5 	40.1001 	-0.14 	-8.01988e-19
0.171875 	-0.984375 	0.5 	40.1041 	-0.136926 	-2.24215e-19
0.1875 	-0.984375 	0.5 	40.1083 	-0.133823 	-2.45343e-19
0.203125 	-0.984375 	0.5 	40.1116 	-0.131059 	-1.11475e-19
0.21875 	-0.984375 	0.5 	40.1148 	-0.127809 	5.1067e-19
0.234375 	-0.984375 	0.5 	40.1183 	-0.124025 	4.50779e-20
0.25 	-0.984375 	0.5 	40.1212 	-0.120474 	-1.11404e-19
0.265625 	-0.984375 	0.5 	40.124 	-0.117019 	-1.73543e-19
0.28125 	-0.984375 	0.5 	40.1269 	-0.113337 	5.70996e-20
0.296875 	-0.984375 	0.5 	40.1303 	-0.109162 	1.06999e-19
0.3125 	-0.984375 	0.5 	40.1331 	-0.105052 	5.22845e-19
0.328125 	-0.984375 	0.5 	40.1354 	-0.100996 	1.4297e-18
0.34375 	-0.984375 	0.5 	40.1376 	-0.0968606 	4.35818e-19
0.359375 	-0.984375 	0.5 	40.1395 	-0.0923485 	1.16782e-19
0.375 	-0.984375 	0.5 	40.1418 	-0.0879845 	4.26346e-20
0.390625 	-0.984375 	0.5 	40.1432 	-0.0839459 	5.38007e-19
0.40625 	-0.984375 	0.5 	40.1449 	-0.0793814 	-1.41402e-19
0.421875 	-0.984375 	0.5 	40.1462 	-0.0748405 	1.00402e-19
0.4375 	-0.984375 	0.5 	40.1476 	-0.0701862 	1.33105e-18
0.453125 	-0.984375 	0.5 	40.1486 	-0.0657587 	-1.40608e-18
0.46875 	-0.984375 	0.5 	40.1492 	-0.0609233 	2.90708e-19
0.484375 	-0.984375 	0.5 	40.1501 	-0.0558996 	7.1099e-19
0.5 	-0.984375 	0.5 	40.151 	-0.0512093 	7.5096e-21
0.515625 	-0.984375 	0.5 	40.1512 	-0.0464908 	-1.71733e-18
0.53125 	-0.984375 	0.5 	40.1508 	-0.0428066 	-3.24259e-19
0.546875 	-0.984375 	0.5 	40.1511 	-0.0383695 	-2.23848e-19
0.5625 	-0.984375 	0.5 	40.1511 	-0.0328772 	-3.45876e-18
0.578125 	-0.984375 	0.5 	40.1507 	-0.0288236 	3.84136e-19
0.59375 	-0.984375 	0.5 	40.1501 	-0.0246591 	6.88593e-19
0.609375 	-0.984375 	0.5 	40.149 	-0.0202124 	1.19075e-18
0.625 	-0.984375 	0.5 	40.1481 	-0.0153325 	-3.51408e-19
0.640625 	-0.984375 	0.5 	40.1467 	-0.0114185 	-1.25554e-19
0.65625 	-0.984375 	0.5 	40.146 	-0.0071029 	-2.09574e-19
0.671875 	-0.984375 	0.5 	40.1443 	-0.00356745 	-1.66536e-18
0.6875 	-0.984375 	0.5 	40.1426 	8.99407e-05 	-5.04509e-19
0.703125 	-0.984375 	0.5 	40.1406 	0.0039017 	-2.92769e-19
0.71875 	-0.984375 	0.5 	40.1396 	0.00797406 	1.60191e-18
0.734375 	-0.984375 	0.5 	40.1375 	0.0120631 	-1.9694e-18
0.75 	-0.984375 	0.5 	40.1356 	0.0158475 	-9.82439e-20
0.765625 	-0.984375 	0.5 	40.134 	0.0192542 	4.30167e-19
0.78125 	-0.984375 	0.5 	40.1309 	0.0226194 	-8.73229e-19
0.796875 	-0.984375 	0.5 	40.1282 	0.0263512 	-4.2054e-19
0.8125 	-0.984375 	0.5 	40.1261 	0.0295324 	-2.77653e-19
0.828125 	-0.984375 	0.5 	40.1242 	0.0325592 	-2.88479e-19
0.84375 	-0.984375 	0.5 	40.1219 	0.0348477 	-2.52938e-18
0.859375 	-0.984375 	0.5 	40.1192 	0.0374916 	4.85179e-19
0.875 	-0.984375 	0.5 	40.1165 	0.0404879 	4.34117e-18
0.890625 	-0.984375 	0.5 	40.1135 	0.0427547 	-4.16345e-19
0.90625 	-0.984375 	0.5 	40.1108 	0.044996 	-4.14468e-19
0.921875 	-0.984375 	0.5 	40.1078 	0.0464606 	-1.80348e-18
0.9375 	-0.984375 	0.5 	40.1049 	0.049 	-2.33706e-19
0.953125 	-0.984375 	0.5 	40.1023 	0.0509934 	-1.13455e-18
0.96875 	-0.984375 	0.5 	40.0993 	0.0527449 	2.96448e-19
0.984375 	-0.984375 	0.5 	40.096 	0.0546535 	2.26005e-19
1 	-0.984375 	0.5 	40.0928 	0.0560586 	-7.97817e-19
1.01562 	-0.984375 	0.5 	40.0896 	0.0571892 	-2.64234e-19
1.03125 	-0.984375 	0.5 	40.0865 	0.0583442 	4.43848e-19
1.04688 	-0.984375 	0.5 	40.0835 	0.0595093 	6.87788e-19
1.0625 	-0.984375 	0.5 	40.0805 	0.0603761 	3.09955e-19
1.07812 	-0.984375 	0.5 	40.0775 	0.061373 	-3.52842e-20
1.09375 	-0.984375 	0.5 	40.0746 	0.0625373 	1.24349e-18
1.10938 	-0.984375 	0.5 	40.0717 	0.0631124 	-1.61018e-18
1.125 	-0.984375 	0.5 	40.0686 	0.0633961 	-5.7031e-18
1.14062 	-0.984375 	0.5 	40.0657 	0.0638537 	5.35909e-19
1.15625 	-0.984375 	0.5 	40.0628 	0.0642074 	1.15688e-20
1.17188 	-0.984375 	0.5 	40.0599 	0.0644809 	-7.67055e-20
1.1875 	-0.984375 	0.5 	40.057 	0.0646686 	-5.24843e-19
1.20312 	-0.984375 	0.5 	40.0543 	0.06453 	-2.85737e-19
1.21875 	-0.984375 	0.5 	40.0517 	0.0645493 	-1.72751e-19
1.23438 	-0.984375 	0.5 	40.0491 	0.0639848 	-6.63021e-19
1.25 	-0.984375 	0.5 	40.0463 	0.0635874 	-3.94462e-20
1.26562 	-0.984375 	0.5 	40.0435 	0.0629846 	1.78165e-19
1.28125 	-0.984375 	0.5 	40.0414 	0.0628986 	3.80344e-19
1.29688 	-0.984375 	0.5 	40.039 	0.0623876 	2.5343e-20
1.3125 	-0.984375 	0.5 	40.0368 	0.0622134 	9.3622e-20
1.32812 	-0.984375 	0.5 	40.0342 	0.0622581 	2.25845e-19
1.34375 	-0.984375 	0.5 	40.0317 	0.0611123 	-4.15024e-20
1.35938 	-0.984375 	0.5 	40.0297 	0.0600124 	-2.39639e-18
1.375 	-0.984375 	0.5 	40.0278 	0.0592389 	-2.19072e-18
1.39062 	-0.984375 	0.5 	40.0259 	0.0586575 	-4.78028e-19
1.40625 	-0.984375 	0.5 	40.0239 	0.0579424 	9.24203e-19
1.42188 	-0.984375 	0.5 	40.022 	0.056938 	2.09157e-18
1.4375 	-0.984375 	0.5 	40.0201 	0.0560997 	4.78505e-18
1.45312 	-0.984375 	0.5 	40.0183 	0.0550829 	4.52777e-18
1.46875 	-0.984375 	0.5 	40.0166 	0.0539261 	1.47903e-18
1.48438 	-0.984375 	0.5 	40.0153 	0.0528521 	2.06069e-18
-0.5 	-0.96875 	0.5 	39.9392 	-0.124632 	1.82038e-18
-0.484375 	-0.96875 	0.5 	39.9415 	-0.127223 	2.08809e-18
-0.46875 	-0.96875 	0.5 	39.9439 	-0.129499 	1.80499e-18
-0.453125 	-0.96875 	0.5 	39.9462 	-0.132002 	1.32773e-18
-0.4375 	-0.96875 	0.5 	39.9485 	-0.134645 	7.32071e-19
-0.421875 	-0.96875 	0.5 	39.951 	-0.137458 	2.275e-19
-0.40625 	-0.96875 	0.5 	39.9539 	-0.139636 	-1.119e-18
-0.390625 	-0.96875 	0.5 	39.9568 	-0.141783 	-1.47857e-18
-0.375 	-0.96875 	0.5 	39.9597 	-0.14393 	-1.83814e-18
-0.359375 	-0.96875 	0.5 	39.9625 	-0.146123 	-1.78065e-18
-0.34375 	-0.96875 	0.5 	39.9657 	-0.148543 	-3.04061e-19
-0.328125 	-0.96875 	0.5 	39.9688 	-0.150776 	4.48183e-19
-0.3125 	-0.96875 	0.5 	39.9719 	-0.152996 	1.12246e-18
-0.296875 	-0.96875 	0.5 	39.9752 	-0.154725 	-2.33136e-19
-0.28125 	-0.96875 	0.5 	39.979 	-0.156716 	-1.79985e-20
-0.265625 	-0.96875 	0.5 	39.9829 	-0.158123 	-1.19108e-18
-0.25 	-0.96875 	0.5 	39.987 	-0.159741 	-7.74228e-19
-0.234375 	-0.96875 	0.5 	39.9908 	-0.16145 	-1.70921e-18
-0.21875 	-0.96875 	0.5 	39.9947 	-0.162535 	-1.45206e-18
-0.203125 	-0.96875 	0.5 	39.9989 	-0.163746 	-1.41426e-18
-0.1875 	-0.96875 	0.5 	40.003 	-0.164911 	-1.00509e-18
-0.171875 	-0.96875 	0.5 	40.0071 	-0.166027 	-2.15152e-19
-0.15625 	-0.96875 	0.5 	40.0116 	-0.166566 	-5.98983e-19
-0.140625 	-0.96875 	0.5 	40.0161 	-0.167125 	2.15561e-19
-0.125 	-0.96875 	0.5 	40.0207 	-0.167698 	5.68445e-19
-0.109375 	-0.96875 	0.5 	40.0253 	-0.168105 	9.39276e-19
-0.09375 	-0.96875 	0.5 	40.0299 	-0.16811 	1.4931e-18
-0.078125 	-0.96875 	0.5 	40.0344 	-0.168088 	1.7137e-18
-0.0625 	-0.96875 	0.5 	40.0391 	-0.167704 	4.38958e-19
-0.046875 	-0.96875 	0.5 	40.0441 	-0.16741 	-1.83077e-18
-0.03125 	-0.96875 	0.5 	40.0487 	-0.16705 	-3.1493e-18
-0.015625 	-0.96875 	0.5 	40.0533 	-0.164979 	-5.91023e-19
0 	-0.96875 	0.5 	40.058 	-0.163835 	-2.42989e-19
0.015625 	-0.96875 	0.5 	40.0628 	-0.163128 	-5.9459e-19
0.03125 	-0.96875 	0.5 	40.0674 	-0.162054 	-5.82214e-19
0.046875 	-0.96875 	0.5 	40.072 	-0.160286 	-3.35076e-19
0.0625 	-0.96875 	0.5 	40.0765 	-0.15861 	-2.06341e-19
0.078125 	-0.96875 	0.5 	40.0809 	-0.157145 	-3.86064e-19
0.09375 	-0.96875 	0.5 	40.0855 	-0.154821 	-2.07199e-20
0.109375 	-0.96875 	0.5 	40.0901 	-0.152481 	4.44676e-19
0.125 	-0.96875 	0.5 	40.0943 	-0.149694 	-1.49778e-19
0.140625 	-0.96875 	0.5 	40.0984 	-0.146766 	-4.6047e-19
0.15625 	-0.96875 	0.5 	40.1026 	-0.143838 	-7.71162e-19
0.171875 	-0.96875 	0.5 	40.1068 	-0.140764 	-8.40799e-19
0.1875 	-0.96875 	0.5 	40.1111 	-0.137645 	-9.01754e-19
0.203125 	-0.96875 	0.5 	40.1149 	-0.134328 	2.98221e-20
0.21875 	-0.96875 	0.5 	40.1181 	-0.131599 	1.70676e-18
0.234375 	-0.96875 	0.5 	40.1218 	-0.127508 	1.19877e-19
0.25 	-0.96875 	0.5 	40.1249 	-0.123682 	-3.07871e-19
0.265625 	-0.96875 	0.5 	40.1279 	-0.120094 	-3.10211e-20
0.28125 	-0.96875 	0.5 	40.1308 	-0.116175 	-1.84926e-20
0.296875 	-0.96875 	0.5 	40.1343 	-0.112804 	8.29907e-20
0.3125 	-0.96875 	0.5 	40.1372 	-0.107437 	2.36985e-19
0.328125 	-0.96875 	0.5 	40.1397 	-0.103764 	1.03095e-19
0.34375 	-0.96875 	0.5 	40.1419 	-0.0993477 	2.62279e-19
0.359375 	-0.96875 	0.5 	40.1441 	-0.0948014 	8.92651e-20
0.375 	-0.96875 	0.5 	40.1459 	-0.0901306 	-1.08749e-19
0.390625 	-0.96875 	0.5 	40.1476 	-0.085619 	-1.85182e-18
0.40625 	-0.96875 	0.5 	40.1494 	-0.0807068 	-1.73622e-19
0.421875 	-0.96875 	0.5 	40.1509 	-0.0761187 	6.66786e-19
0.4375 	-0.96875 	0.5 	40.1519 	-0.0714519 	9.08615e-19
0.453125 	-0.96875 	0.5 	40.1526 	-0.0666755 	2.72158e-19
0.46875 	-0.96875 	0.5 	40.1534 	-0.0617495 	-3.23409e-19
0.484375 	-0.96875 	0.5 	40.1545 	-0.0569211 	1.24367e-18
0.5 	-0.96875 	0.5 	40.1555 	-0.0516771 	3.75088e-19
0.515625 	-0.96875 	0.5 	40.1554 	-0.0472713 	7.75754e-19
0.53125 	-0.96875 	0.5 	40.1549 	-0.0426437 	-5.67465e-19
0.546875 	-0.96875 	0.5 	40.1549 	-0.0379498 	-1.57185e-18
0.5625 	-0.96875 	0.5 	40.1548 	-0.0330827 	-1.28244e-18
0.578125 	-0.96875 	0.5 	40.1546 	-0.0282156 	-9.93027e-19
0.59375 	-0.96875 	0.5 	40.1539 	-0.0238032 	1.11369e-19
0.609375 	-0.96875 	0.5 	40.1529 	-0.0190501 	-1.86663e-19
0.625 	-0.96875 	0.5 	40.1523 	-0.0142692 	-6.03899e-19
0.640625 	-0.96875 	0.5 	40.151 	-0.00986165 	-9.92381e-19
0.65625 	-0.96875 	0.5 	40.1497 	-0.00574883 	-4.17304e-19
0.671875 	-0.96875 	0.5 	40.1485 	-0.00180259 	-8.87948e-19
0.6875 	-0.96875 	0.5 	40.147 	0.00290735 	-3.09201e-19
0.703125 	-0.96875 	0.5 	40.1451 	0.00667263 	-2.29032e-19
0.71875 	-0.96875 	0.5 	40.1431 	0.00970805 	4.5574e-19
0.734375 	-0.96875 	0.5 	40.1409 	0.0136982 	-1.81198e-18
0.75 	-0.96875 	0.5 	40.1389 	0.0175202 	-8.63466e-19
0.765625 	-0.96875 	0.5 	40.1368 	0.0212596 	-3.69376e-20
0.78125 	-0.96875 	0.5 	40.1346 	0.0247084 	-1.50569e-18
0.796875 	-0.96875 	0.5 	40.1318 	0.0285005 	-2.25862e-19
0.8125 	-0.96875 	0.5 	40.1298 	0.0317865 	-6.33184e-19
0.828125 	-0.96875 	0.5 	40.1268 	0.0346811 	-5.61001e-19
0.84375 	-0.96875 	0.5 	40.1244 	0.0374952 	-1.7107e-19
0.859375 	-0.96875 	0.5 	40.1216 	0.0403409 	1.87285e-18
0.875 	-0.96875 	0.5 	40.1187 	0.0430514 	2.29222e-18
0.890625 	-0.96875 	0.5 	40.1158 	0.0456234 	1.04693e-18
0.90625 	-0.96875 	0.5 	40.1129 	0.0476072 	-3.09162e-19
0.921875 	-0.96875 	0.5 	40.11 	0.0497519 	-4.6967e-21
0.9375 	-0.96875 	0.5 	40.1071 	0.0519124 	-1.66672e-20
0.953125 	-0.96875 	0.5 	40.1038 	0.0535209 	1.24786e-18
0.96875 	-0.96875 	0.5 	40.1004 	0.0550077 	3.31771e-18
0.984375 	-0.96875 	0.5 	40.0972 	0.057412 	7.68024e-20
1 	-0.96875 	0.5 	40.0941 	0.0596059 	2.81971e-19
1.01562 	-0.96875 	0.5 	40.0909 	0.0604986 	-1.45922e-18
1.03125 	-0.96875 	0.5 	40.0879 	0.0618119 	3.83006e-19
1.04688 	-0.96875 	0.5 	40.0844 	0.0630934 	1.78073e-18
1.0625 	-0.96875 	0.5 	40.0812 	0.0643534 	-2.46835e-18
1.07812 	-0.96875 	0.5 	40.0782 	0.0653468 	-2.55829e-18
1.09375 	-0.96875 	0.5 	40.075 	0.0658155 	9.92804e-19
1.10938 	-0.96875 	0.5 	40.0717 	0.0657548 	-5.36433e-18
1.125 	-0.96875 	0.5 	40.0688 	0.0662372 	-4.50268e-18
1.14062 	-0.96875 	0.5 	40.0657 	0.0663737 	1.49404e-18
1.15625 	-0.96875 	0.5 	40.0632 	0.0673498 	5.15591e-19
1.17188 	-0.96875 	0.5 	40.0601 	0.0675558 	3.23608e-19
1.1875 	-0.96875 	0.5 	40.057 	0.0674671 	-7.11337e-20
1.20312 	-0.96875 	0.5 	40.0542 	0.0671675 	-1.55672e-18
1.21875 	-0.96875 	0.5 	40.0514 	0.0670142 	-7.05204e-19
1.23438 	-0.96875 	0.5 	40.0487 	0.0667444 	-1.94293e-19
1.25 	-0.96875 	0.5 	40.0459 	0.0661027 	5.34493e-20
1.26562 	-0.96875 	0.5 	40.0432 	0.0655026 	2.72257e-19
1.28125 	-0.96875 	0.5 	40.0409 	0.0652757 	3.80144e-19
1.29688 	-0.96875 	0.5 	40.0388 	0.0651291 	-2.76653e-19
1.3125 	-0.96875 	0.5 	40.0365 	0.0650387 	-2.52791e-18
1.32812 	-0.96875 	0.5 	40.0337 	0.0641058 	-2.933e-19
1.34375 	-0.96875 	0.5 	40.0312 	0.063311 	-5.18586e-19
1.35938 	-0.96875 	0.5 	40.0292 	0.0623342 	-1.9074e-18
1.375 	-0.96875 	0.5 	40.0274 	0.0617528 	-1.94708e-19
1.39062 	-0.96875 	0.5 	40.0249 	0.0607697 	5.84973e-19
1.40625 	-0.96875 	0.5 	40.0227 	0.0598843 	3.48906e-19
1.42188 	-0.96875 	0.5 	40.0209 	0.0588084 	-8.8104e-19
1.4375 	-0.96875 	0.5 	40.019 	0.0574687 	1.39354e-18
1.45312 	-0.96875 	0.5 	40.0171 	0.0565928 	3.46395e-18
1.46875 	-0.96875 	0.5 	40.0155 	0.0555382 	1.63436e-18
1.48438 	-0.96875 	0.5 	40.0142 	0.0542682 	1.28479e-18
-0.5 	-0.953125 	0.5 	39.9365 	-0.126748 	1.19265e-18
-0.484375 	-0.953125 	0.5 	39.9386 	-0.129558 	1.69466e-18
-0.46875 	-0.953125 	0.5 	39.941 	-0.131914 	1.73422e-18
-0.453125 	-0.953125 	0.5 	39.9434 	-0.134425 	1.25073e-18
-0.4375 	-0.953125 	0.5 	39.9458 	-0.13734 	1.94144e-18
-0.421875 	-0.953125 	0.5 	39.9486 	-0.140347 	2.83442e-18
-0.40625 	-0.953125 	0.5 	39.9512 	-0.142672 	-8.87087e-19
-0.390625 	-0.953125 	0.5 	39.9541 	-0.144879 	-3.14472e-18
-0.375 	-0.953125 	0.5 	39.9569 	-0.146973 	-1.86288e-18
-0.359375 	-0.953125 	0.5 	39.9599 	-0.149561 	-2.4037e-18
-0.34375 	-0.953125 	0.5 	39.9633 	-0.151971 	-1.31069e-18
-0.328125 	-0.953125 	0.5 	39.9665 	-0.154371 	5.36128e-19
-0.3125 	-0.953125 	0.5 	39.9696 	-0.156431 	2.22997e-19
-0.296875 	-0.953125 	0.5 	39.9738 	-0.157348 	8.0462e-19
-0.28125 	-0.953125 	0.5 	39.9772 	-0.16015 	1.20317e-18
-0.265625 	-0.953125 	0.5 	39.9809 	-0.161717 	-8.59345e-19
-0.25 	-0.953125 	0.5 	39.985 	-0.163361 	-2.45435e-19
-0.234375 	-0.953125 	0.5 	39.9891 	-0.164954 	4.04157e-20
-0.21875 	-0.953125 	0.5 	39.9934 	-0.166605 	-8.44347e-19
-0.203125 	-0.953125 	0.5 	39.9976 	-0.167565 	-8.74772e-19
-0.1875 	-0.953125 	0.5 	40.0017 	-0.168971 	-5.36239e-19
-0.171875 	-0.953125 	0.5 	40.0062 	-0.170575 	-5.00226e-20
-0.15625 	-0.953125 	0.5 	40.0111 	-0.171386 	7.09442e-19
-0.140625 	-0.953125 	0.5 	40.0159 	-0.171863 	2.34885e-18
-0.125 	-0.953125 	0.5 	40.0201 	-0.172633 	5.85915e-20
-0.109375 	-0.953125 	0.5 	40.025 	-0.172613 	-1.82772e-18
-0.09375 	-0.953125 	0.5 	40.0299 	-0.172883 	1.43445e-18
-0.078125 	-0.953125 	0.5 	40.0344 	-0.172849 	1.494e-18
-0.0625 	-0.953125 	0.5 	40.0392 	-0.172323 	1.89752e-18
-0.046875 	-0.953125 	0.5 	40.0443 	-0.171707 	1.38443e-18
-0.03125 	-0.953125 	0.5 	40.0493 	-0.171366 	-1.68589e-18
-0.015625 	-0.953125 	0.5 	40.0539 	-0.169846 	-4.71379e-19
0 	-0.953125 	0.5 	40.0588 	-0.169135 	-8.03226e-19
0.015625 	-0.953125 	0.5 	40.0644 	-0.168351 	-8.2089e-19
0.03125 	-0.953125 	0.5 	40.0691 	-0.167066 	-4.39814e-20
0.046875 	-0.953125 	0.5 	40.0736 	-0.165602 	-3.48191e-18
0.0625 	-0.953125 	0.5 	40.0784 	-0.163954 	-1.73076e-18
0.078125 	-0.953125 	0.5 	40.0831 	-0.161803 	-6.47017e-20
0.09375 	-0.953125 	0.5 	40.0881 	-0.159027 	1.85214e-18
0.109375 	-0.953125 	0.5 	40.0925 	-0.157118 	2.08088e-18
0.125 	-0.953125 	0.5 	40.0969 	-0.154154 	3.98217e-19
0.140625 	-0.953125 	0.5 	40.1012 	-0.15176 	-3.39773e-18
0.15625 	-0.953125 	0.5 	40.1051 	-0.148176 	1.18477e-18
0.171875 	-0.953125 	0.5 	40.1097 	-0.14489 	-1.66528e-19
0.1875 	-0.953125 	0.5 	40.1139 	-0.142906 	-2.80368e-18
0.203125 	-0.953125 	0.5 	40.1178 	-0.138089 	-1.32304e-19
0.21875 	-0.953125 	0.5 	40.1215 	-0.134321 	-1.3373e-19
0.234375 	-0.953125 	0.5 	40.1252 	-0.13076 	3.31867e-21
0.25 	-0.953125 	0.5 	40.1286 	-0.126961 	-8.91039e-20
0.265625 	-0.953125 	0.5 	40.1319 	-0.122862 	-4.6029e-20
0.28125 	-0.953125 	0.5 	40.135 	-0.118847 	-1.73877e-20
0.296875 	-0.953125 	0.5 	40.1378 	-0.115192 	3.40219e-20
0.3125 	-0.953125 	0.5 	40.1407 	-0.109854 	-3.63464e-19
0.328125 	-0.953125 	0.5 	40.1438 	-0.105875 	7.09819e-20
0.34375 	-0.953125 	0.5 	40.1462 	-0.101835 	8.80894e-20
0.359375 	-0.953125 	0.5 	40.1483 	-0.0972402 	-8.25921e-20
0.375 	-0.953125 	0.5 	40.1504 	-0.0922639 	-1.29738e-20
0.390625 	-0.953125 	0.5 	40.1522 	-0.0870537 	1.48696e-18
0.40625 	-0.953125 	0.5 	40.154 	-0.0821276 	-8.96304e-19
0.421875 	-0.953125 	0.5 	40.1554 	-0.0772224 	9.23351e-19
0.4375 	-0.953125 	0.5 	40.1566 	-0.0722095 	1.7278e-18
0.453125 	-0.953125 	0.5 	40.1575 	-0.0678345 	3.18542e-20
0.46875 	-0.953125 	0.5 	40.1581 	-0.0622774 	-5.54184e-19
0.484375 	-0.953125 	0.5 	40.1588 	-0.0572366 	-7.01657e-20
0.5 	-0.953125 	0.5 	40.16 	-0.0520675 	-1.76337e-19
0.515625 	-0.953125 	0.5 	40.1599 	-0.0476858 	4.21502e-19
0.53125 	-0.953125 	0.5 	40.1598 	-0.0428482 	-3.81947e-19
0.546875 	-0.953125 	0.5 	40.1599 	-0.0378767 	4.01922e-21
0.5625 	-0.953125 	0.5 	40.1603 	-0.0329714 	8.54045e-19
0.578125 	-0.953125 	0.5 	40.1592 	-0.0283708 	4.97933e-20
0.59375 	-0.953125 	0.5 	40.1579 	-0.0225593 	4.52925e-20
0.609375 	-0.953125 	0.5 	40.1572 	-0.0183703 	3.2341e-21
0.625 	-0.953125 	0.5 	40.1567 	-0.0135616 	-2.26613e-19
0.640625 	-0.953125 	0.5 	40.1559 	-0.00918519 	-3.62626e-18
0.65625 	-0.953125 	0.5 	40.1543 	-0.00469076 	-1.13411e-18
0.671875 	-0.953125 	0.5 	40.1528 	-5.76911e-06 	-7.80305e-19
0.6875 	-0.953125 	0.5 	40.1509 	0.00425547 	-1.85118e-19
0.703125 	-0.953125 	0.5 	40.149 	0.00809579 	-8.11745e-20
0.71875 	-0.953125 	0.5 	40.147 	0.0117329 	-2.4413e-19
0.734375 	-0.953125 	0.5 	40.145 	0.0156688 	-1.06415e-19
0.75 	-0.953125 	0.5 	40.143 	0.0197551 	3.48566e-20
0.765625 	-0.953125 	0.5 	40.1404 	0.0236808 	1.7931e-19
0.78125 	-0.953125 	0.5 	40.1379 	0.0269592 	2.56502e-18
0.796875 	-0.953125 	0.5 	40.1354 	0.0306741 	3.95205e-19
0.8125 	-0.953125 	0.5 	40.1328 	0.0338765 	5.08654e-19
0.828125 	-0.953125 	0.5 	40.1302 	0.0369765 	1.0118e-18
0.84375 	-0.953125 	0.5 	40.1272 	0.0403497 	-8.69767e-19
0.859375 	-0.953125 	0.5 	40.1246 	0.0432768 	-4.09288e-18
0.875 	-0.953125 	0.5 	40.1216 	0.0459909 	-2.48821e-18
0.890625 	-0.953125 	0.5 	40.1183 	0.0482568 	2.05029e-18
0.90625 	-0.953125 	0.5 	40.1148 	0.0511053 	1.45005e-19
0.921875 	-0.953125 	0.5 	40.1121 	0.0534043 	2.17102e-20
0.9375 	-0.953125 	0.5 	40.1088 	0.0556242 	-2.94315e-20
0.953125 	-0.953125 	0.5 	40.1056 	0.056925 	-2.29896e-20
0.96875 	-0.953125 	0.5 	40.102 	0.0584243 	8.71019e-19
0.984375 	-0.953125 	0.5 	40.0986 	0.0604116 	1.38506e-20
1 	-0.953125 	0.5 	40.0954 	0.0624185 	1.52098e-19
1.01562 	-0.953125 	0.5 	40.0923 	0.0641997 	1.51456e-19
1.03125 	-0.953125 	0.5 	40.089 	0.0656388 	2.3037e-18
1.04688 	-0.953125 	0.5 	40.0855 	0.0668399 	3.29421e-18
1.0625 	-0.953125 	0.5 	40.0819 	0.0673785 	4.27515e-20
1.07812 	-0.953125 	0.5 	40.0789 	0.0684586 	-5.8523e-19
1.09375 	-0.953125 	0.5 	40.0754 	0.0691876 	3.41273e-18
1.10938 	-0.953125 	0.5 	40.072 	0.0687972 	-9.33838e-19
1.125 	-0.953125 	0.5 	40.069 	0.0691239 	-2.16504e-18
1.14062 	-0.953125 	0.5 	40.066 	0.0694857 	1.18961e-20
1.15625 	-0.953125 	0.5 	40.0634 	0.0702915 	8.06272e-19
1.17188 	-0.953125 	0.5 	40.0602 	0.0703092 	5.65636e-19
1.1875 	-0.953125 	0.5 	40.0569 	0.0702715 	9.5333e-20
1.20312 	-0.953125 	0.5 	40.0542 	0.0699907 	-5.98569e-19
1.21875 	-0.953125 	0.5 	40.0513 	0.0699011 	6.82641e-19
1.23438 	-0.953125 	0.5 	40.0483 	0.0697579 	1.64661e-19
1.25 	-0.953125 	0.5 	40.0458 	0.06925 	1.18665e-19
1.26562 	-0.953125 	0.5 	40.0432 	0.0684779 	4.56936e-19
1.28125 	-0.953125 	0.5 	40.0406 	0.0679344 	7.33407e-20
1.29688 	-0.953125 	0.5 	40.0382 	0.0675338 	-9.61046e-19
1.3125 	-0.953125 	0.5 	40.0359 	0.0671332 	-1.99543e-18
1.32812 	-0.953125 	0.5 	40.0334 	0.0666275 	-2.61747e-18
1.34375 	-0.953125 	0.5 	40.0307 	0.0655097 	-9.9567e-19
1.35938 	-0.953125 	0.5 	40.0285 	0.0646438 	-3.86002e-19
1.375 	-0.953125 	0.5 	40.026 	0.063597 	2.45742e-19
1.39062 	-0.953125 	0.5 	40.0236 	0.0626072 	5.70398e-19
1.40625 	-0.953125 	0.5 	40.0216 	0.0618282 	-2.37545e-19
1.42188 	-0.953125 	0.5 	40.0197 	0.0609279 	-3.14213e-18
1.4375 	-0.953125 	0.5 	40.0178 	0.0594623 	-1.47625e-18
1.45312 	-0.953125 	0.5 	40.0159 	0.0579995 	6.95503e-19
1.46875 	-0.953125 	0.5 	40.0143 	0.0568527 	3.75486e-19
1.48438 	-0.953125 	0.5 	40.0129 	0.055752 	4.34452e-21
-0.5 	-0.9375 	0.5 	39.9338 	-0.128791 	1.17983e-18
-0.484375 	-0.9375 	0.5 	39.9359 	-0.131672 	1.08558e-18
-0.46875 	-0.9375 	0.5 	39.9381 	-0.134436 	1.5721e-18
-0.453125 	-0.9375 	0.5 	39.9404 	-0.13695 	1.23618e-18
-0.4375 	-0.9375 	0.5 	39.9434 	-0.140191 	4.27299e-18
-0.421875 	-0.9375 	0.5 	39.9462 	-0.143232 	5.48141e-18
-0.40625 	-0.9375 	0.5 	39.9486 	-0.145636 	8.31074e-19
-0.390625 	-0.9375 	0.5 	39.9514 	-0.147885 	-2.00167e-18
-0.375 	-0.9375 	0.5 	39.9542 	-0.150021 	-1.04157e-18
-0.359375 	-0.9375 	0.5 	39.9572 	-0.153 	-3.02675e-18
-0.34375 	-0.9375 	0.5 	39.9606 	-0.155466 	-2.23731e-18
-0.328125 	-0.9375 	0.5 	39.9641 	-0.157772 	-5.76981e-19
-0.3125 	-0.9375 	0.5 	39.9676 	-0.159559 	5.55519e-20
-0.296875 	-0.9375 	0.5 	39.9716 	-0.161324 	1.05682e-18
-0.28125 	-0.9375 	0.5 	39.9754 	-0.16344 	1.85351e-18
-0.265625 	-0.9375 	0.5 	39.979 	-0.165605 	1.78216e-18
-0.25 	-0.9375 	0.5 	39.9832 	-0.166909 	2.86972e-18
-0.234375 	-0.9375 	0.5 	39.9875 	-0.169154 	-1.27511e-19
-0.21875 	-0.9375 	0.5 	39.992 	-0.171351 	-4.24941e-19
-0.203125 	-0.9375 	0.5 	39.9963 	-0.172398 	-6.99709e-19
-0.1875 	-0.9375 	0.5 	40.0005 	-0.174107 	-1.1411e-19
-0.171875 	-0.9375 	0.5 	40.0055 	-0.175277 	-1.27871e-20
-0.15625 	-0.9375 	0.5 	40.0103 	-0.176345 	-5.74367e-19
-0.140625 	-0.9375 	0.5 	40.0151 	-0.176858 	1.03268e-18
-0.125 	-0.9375 	0.5 	40.0196 	-0.177225 	-2.13941e-18
-0.109375 	-0.9375 	0.5 	40.0246 	-0.177099 	-4.66499e-18
-0.09375 	-0.9375 	0.5 	40.0297 	-0.177412 	-1.26463e-18